No checkpoint file specified...
total 0
 Entering Gaussian System, Link 0=g16
 Initial command:
 /usr/local/gaussian/g16a03/g16/l1.exe "/tmp/p2015120004.sophiec/g16.10108896/scratch/Gau-156881.inp" -scrdir="/tmp/p2015120004.sophiec/g16.10108896/scratch/"
 Entering Link 1 = /usr/local/gaussian/g16a03/g16/l1.exe PID=    156883.
  
 Copyright (c) 1988,1990,1992,1993,1995,1998,2003,2009,2016,
            Gaussian, Inc.  All Rights Reserved.
  
 This is part of the Gaussian(R) 16 program.  It is based on
 the Gaussian(R) 09 system (copyright 2009, Gaussian, Inc.),
 the Gaussian(R) 03 system (copyright 2003, Gaussian, Inc.),
 the Gaussian(R) 98 system (copyright 1998, Gaussian, Inc.),
 the Gaussian(R) 94 system (copyright 1995, Gaussian, Inc.),
 the Gaussian 92(TM) system (copyright 1992, Gaussian, Inc.),
 the Gaussian 90(TM) system (copyright 1990, Gaussian, Inc.),
 the Gaussian 88(TM) system (copyright 1988, Gaussian, Inc.),
 the Gaussian 86(TM) system (copyright 1986, Carnegie Mellon
 University), and the Gaussian 82(TM) system (copyright 1983,
 Carnegie Mellon University). Gaussian is a federally registered
 trademark of Gaussian, Inc.
  
 This software contains proprietary and confidential information,
 including trade secrets, belonging to Gaussian, Inc.
  
 This software is provided under written license and may be
 used, copied, transmitted, or stored only in accord with that
 written license.
  
 The following legend is applicable only to US Government
 contracts under FAR:
  
                    RESTRICTED RIGHTS LEGEND
  
 Use, reproduction and disclosure by the US Government is
 subject to restrictions as set forth in subparagraphs (a)
 and (c) of the Commercial Computer Software - Restricted
 Rights clause in FAR 52.227-19.
  
 Gaussian, Inc.
 340 Quinnipiac St., Bldg. 40, Wallingford CT 06492
  
  
 ---------------------------------------------------------------
 Warning -- This program may not be used in any manner that
 competes with the business of Gaussian, Inc. or will provide
 assistance to any competitor of Gaussian, Inc.  The licensee
 of this program is prohibited from giving any competitor of
 Gaussian, Inc. access to this program.  By using this program,
 the user acknowledges that Gaussian, Inc. is engaged in the
 business of creating and licensing software in the field of
 computational chemistry and represents and warrants to the
 licensee that it is not a competitor of Gaussian, Inc. and that
 it will not use this program in any manner prohibited above.
 ---------------------------------------------------------------
  

 Cite this work as:
 Gaussian 16, Revision A.03,
 M. J. Frisch, G. W. Trucks, H. B. Schlegel, G. E. Scuseria, 
 M. A. Robb, J. R. Cheeseman, G. Scalmani, V. Barone, 
 G. A. Petersson, H. Nakatsuji, X. Li, M. Caricato, A. V. Marenich, 
 J. Bloino, B. G. Janesko, R. Gomperts, B. Mennucci, H. P. Hratchian, 
 J. V. Ortiz, A. F. Izmaylov, J. L. Sonnenberg, D. Williams-Young, 
 F. Ding, F. Lipparini, F. Egidi, J. Goings, B. Peng, A. Petrone, 
 T. Henderson, D. Ranasinghe, V. G. Zakrzewski, J. Gao, N. Rega, 
 G. Zheng, W. Liang, M. Hada, M. Ehara, K. Toyota, R. Fukuda, 
 J. Hasegawa, M. Ishida, T. Nakajima, Y. Honda, O. Kitao, H. Nakai, 
 T. Vreven, K. Throssell, J. A. Montgomery, Jr., J. E. Peralta, 
 F. Ogliaro, M. J. Bearpark, J. J. Heyd, E. N. Brothers, K. N. Kudin, 
 V. N. Staroverov, T. A. Keith, R. Kobayashi, J. Normand, 
 K. Raghavachari, A. P. Rendell, J. C. Burant, S. S. Iyengar, 
 J. Tomasi, M. Cossi, J. M. Millam, M. Klene, C. Adamo, R. Cammi, 
 J. W. Ochterski, R. L. Martin, K. Morokuma, O. Farkas, 
 J. B. Foresman, and D. J. Fox, Gaussian, Inc., Wallingford CT, 2016.
 
 ******************************************
 Gaussian 16:  ES64L-G16RevA.03 25-Dec-2016
                31-Oct-2022 
 ******************************************
 %chk=spec.chk
 %mem=64gb
 %nproc=16
 Will use up to   16 processors via shared memory.
 --------------------------------------------------------
 #P M062X/Gen field=X-8 int=(grid=ultrafine) polar=Dipole
 --------------------------------------------------------
 1/38=1,172=1/1;
 2/12=2,17=6,18=5,40=1/2;
 3/5=7,11=2,14=1,15=-8,25=1,30=1,74=-55,75=-5/1,2,3;
 4//1;
 5/5=2,38=5,98=1/2;
 8/6=4,10=90,11=11/1;
 10/6=1,13=10,17=1/2;
 6/7=2,8=2,9=2,10=2,28=1/1;
 99/5=1,9=1/99;
 Leave Link    1 at Mon Oct 31 15:21:52 2022, MaxMem=  8589934592 cpu:               1.2 elap:               0.1
 (Enter /usr/local/gaussian/g16a03/g16/l101.exe)
 ------------
 c4mpyr_eGeom
 ------------
 Symbolic Z-matrix:
 Charge =  1 Multiplicity = 1
 C                    -2.0231   -4.18137  -2.29528 
 C                    -1.51702  -4.48435  -0.89675 
 C                    -0.00788  -4.35061  -1.05271 
 H                    -1.78359  -5.49831  -0.5978 
 H                    -1.94113  -3.79811  -0.16891 
 C                     0.23868  -5.0581   -2.36977 
 H                     0.55427  -4.81453  -0.2468 
 H                     0.28852  -3.30231  -1.10663 
 N                    -0.94145  -4.68569  -3.25851 
 H                     0.21848  -6.13628  -2.23918 
 H                     1.15954  -4.78298  -2.87231 
 H                    -2.1215   -3.11116  -2.4562 
 H                    -2.96459  -4.65832  -2.54631 
 C                    -0.55067  -3.59072  -4.18918 
 H                     0.23702  -3.93912  -4.84894 
 H                    -0.19092  -2.74819  -3.60496 
 H                    -1.41956  -3.29244  -4.77068 
 C                    -1.48832  -5.86965  -4.03146 
 C                    -0.63969  -6.43617  -5.15815 
 H                    -2.43488  -5.52709  -4.44643 
 H                    -1.70453  -6.63103  -3.28204 
 C                     0.70379  -7.06996  -4.80772 
 H                    -0.5104   -5.69187  -5.94615 
 H                    -1.27615  -7.20598  -5.60212 
 C                     1.29289  -7.81708  -5.99755 
 H                     0.57712  -7.75976  -3.96906 
 H                     1.41573  -6.30869  -4.48304 
 H                     0.63383  -8.62436  -6.31742 
 H                     2.25768  -8.25266  -5.7455 
 H                     1.43973  -7.14886  -6.84684 
 
 ITRead=  0  0  0  0  0  0  0  0  0  0  0  0  0  0  0  0  0  0  0  0
 ITRead=  0  0  0  0  0  0  0  0  0  0
 MicOpt= -1 -1 -1 -1 -1 -1 -1 -1 -1 -1 -1 -1 -1 -1 -1 -1 -1 -1 -1 -1
 MicOpt= -1 -1 -1 -1 -1 -1 -1 -1 -1 -1
 NAtoms=     30 NQM=       30 NQMF=       0 NMMI=      0 NMMIF=      0
                NMic=       0 NMicF=      0.
                    Isotopes and Nuclear Properties:
 (Nuclear quadrupole moments (NQMom) in fm**2, nuclear magnetic moments (NMagM)
  in nuclear magnetons)

  Atom         1           2           3           4           5           6           7           8           9          10
 IAtWgt=          12          12          12           1           1          12           1           1          14           1
 AtmWgt=  12.0000000  12.0000000  12.0000000   1.0078250   1.0078250  12.0000000   1.0078250   1.0078250  14.0030740   1.0078250
 NucSpn=           0           0           0           1           1           0           1           1           2           1
 AtZEff=  -0.0000000  -0.0000000  -0.0000000  -0.0000000  -0.0000000  -0.0000000  -0.0000000  -0.0000000  -0.0000000  -0.0000000
 NQMom=    0.0000000   0.0000000   0.0000000   0.0000000   0.0000000   0.0000000   0.0000000   0.0000000   2.0440000   0.0000000
 NMagM=    0.0000000   0.0000000   0.0000000   2.7928460   2.7928460   0.0000000   2.7928460   2.7928460   0.4037610   2.7928460
 AtZNuc=   6.0000000   6.0000000   6.0000000   1.0000000   1.0000000   6.0000000   1.0000000   1.0000000   7.0000000   1.0000000

  Atom        11          12          13          14          15          16          17          18          19          20
 IAtWgt=           1           1           1          12           1           1           1          12          12           1
 AtmWgt=   1.0078250   1.0078250   1.0078250  12.0000000   1.0078250   1.0078250   1.0078250  12.0000000  12.0000000   1.0078250
 NucSpn=           1           1           1           0           1           1           1           0           0           1
 AtZEff=  -0.0000000  -0.0000000  -0.0000000  -0.0000000  -0.0000000  -0.0000000  -0.0000000  -0.0000000  -0.0000000  -0.0000000
 NQMom=    0.0000000   0.0000000   0.0000000   0.0000000   0.0000000   0.0000000   0.0000000   0.0000000   0.0000000   0.0000000
 NMagM=    2.7928460   2.7928460   2.7928460   0.0000000   2.7928460   2.7928460   2.7928460   0.0000000   0.0000000   2.7928460
 AtZNuc=   1.0000000   1.0000000   1.0000000   6.0000000   1.0000000   1.0000000   1.0000000   6.0000000   6.0000000   1.0000000

  Atom        21          22          23          24          25          26          27          28          29          30
 IAtWgt=           1          12           1           1          12           1           1           1           1           1
 AtmWgt=   1.0078250  12.0000000   1.0078250   1.0078250  12.0000000   1.0078250   1.0078250   1.0078250   1.0078250   1.0078250
 NucSpn=           1           0           1           1           0           1           1           1           1           1
 AtZEff=  -0.0000000  -0.0000000  -0.0000000  -0.0000000  -0.0000000  -0.0000000  -0.0000000  -0.0000000  -0.0000000  -0.0000000
 NQMom=    0.0000000   0.0000000   0.0000000   0.0000000   0.0000000   0.0000000   0.0000000   0.0000000   0.0000000   0.0000000
 NMagM=    2.7928460   0.0000000   2.7928460   2.7928460   0.0000000   2.7928460   2.7928460   2.7928460   2.7928460   2.7928460
 AtZNuc=   1.0000000   6.0000000   1.0000000   1.0000000   6.0000000   1.0000000   1.0000000   1.0000000   1.0000000   1.0000000
 Leave Link  101 at Mon Oct 31 15:21:52 2022, MaxMem=  8589934592 cpu:               1.6 elap:               0.1
 (Enter /usr/local/gaussian/g16a03/g16/l202.exe)
                          Input orientation:                          
 ---------------------------------------------------------------------
 Center     Atomic      Atomic             Coordinates (Angstroms)
 Number     Number       Type             X           Y           Z
 ---------------------------------------------------------------------
      1          6           0       -2.023100   -4.181370   -2.295280
      2          6           0       -1.517020   -4.484350   -0.896750
      3          6           0       -0.007880   -4.350610   -1.052710
      4          1           0       -1.783590   -5.498310   -0.597800
      5          1           0       -1.941130   -3.798110   -0.168910
      6          6           0        0.238680   -5.058100   -2.369770
      7          1           0        0.554270   -4.814530   -0.246800
      8          1           0        0.288520   -3.302310   -1.106630
      9          7           0       -0.941450   -4.685690   -3.258510
     10          1           0        0.218480   -6.136280   -2.239180
     11          1           0        1.159540   -4.782980   -2.872310
     12          1           0       -2.121500   -3.111160   -2.456200
     13          1           0       -2.964590   -4.658320   -2.546310
     14          6           0       -0.550670   -3.590720   -4.189180
     15          1           0        0.237020   -3.939120   -4.848940
     16          1           0       -0.190920   -2.748190   -3.604960
     17          1           0       -1.419560   -3.292440   -4.770680
     18          6           0       -1.488320   -5.869650   -4.031460
     19          6           0       -0.639690   -6.436170   -5.158150
     20          1           0       -2.434880   -5.527090   -4.446430
     21          1           0       -1.704530   -6.631030   -3.282040
     22          6           0        0.703790   -7.069960   -4.807720
     23          1           0       -0.510400   -5.691870   -5.946150
     24          1           0       -1.276150   -7.205980   -5.602120
     25          6           0        1.292890   -7.817080   -5.997550
     26          1           0        0.577120   -7.759760   -3.969060
     27          1           0        1.415730   -6.308690   -4.483040
     28          1           0        0.633830   -8.624360   -6.317420
     29          1           0        2.257680   -8.252660   -5.745500
     30          1           0        1.439730   -7.148860   -6.846840
 ---------------------------------------------------------------------
                    Distance matrix (angstroms):
                    1          2          3          4          5
     1  C    0.000000
     2  C    1.517827   0.000000
     3  C    2.373549   1.523061   0.000000
     4  H    2.161743   1.090204   2.162708   0.000000
     5  H    2.162188   1.086529   2.196318   1.760524   0.000000
     6  C    2.426902   2.362511   1.515249   2.724562   3.344089
     7  H    3.352611   2.195836   1.086612   2.460964   2.695589
     8  H    2.743943   2.168235   1.090731   3.061856   2.469104
     9  N    1.533661   2.439207   2.418550   2.906704   3.366420
    10  H    2.974811   2.746443   2.155822   2.666349   3.796969
    11  H    3.289999   3.340058   2.204713   3.787758   4.229952
    12  H    1.086705   2.164008   2.823723   3.044063   2.395022
    13  H    1.084851   2.201539   3.326809   2.428381   2.727538
    14  C    2.470582   3.545772   3.272537   4.249353   4.258986
    15  H    3.418773   4.358181   3.826312   4.958440   5.164001
    16  H    2.669485   3.479539   3.019145   4.375245   3.996499
    17  H    2.698530   4.054316   4.115321   4.734058   4.658758
    18  C    2.480040   3.427286   3.656793   3.466280   4.406314
    19  C    3.897944   4.768526   4.647944   4.794255   5.791858
    20  H    2.570597   3.811824   4.334947   3.903455   4.640080
    21  H    2.660078   3.214499   3.612319   2.914524   4.215803
    22  C    4.700238   5.187780   4.690569   5.136202   6.262520
    23  H    4.230688   5.288462   5.098751   5.501211   6.245784
    24  H    4.543280   5.441121   5.518947   5.311954   6.447910
    25  C    6.158001   6.709757   6.177367   6.633153   7.783576
    26  H    4.729435   4.955080   4.524337   4.696009   6.039652
    27  H    4.597536   4.979028   4.198560   5.097789   6.015251
    28  H    6.555688   7.151888   6.811307   6.951990   8.229659
    29  H    6.841381   7.208252   6.510072   7.100502   8.280784
    30  H    6.443127   7.158600   6.595280   7.222507   8.200761
                    6          7          8          9         10
     6  C    0.000000
     7  H    2.160075   0.000000
     8  H    2.163517   1.759756   0.000000
     9  N    1.523566   3.365141   2.838513   0.000000
    10  H    1.086248   2.414406   3.052697   2.118651   0.000000
    11  H    1.084537   2.694559   2.463470   2.138405   1.765749
    12  H    3.060800   3.865574   2.768768   2.124939   3.830660
    13  H    3.232944   4.206486   3.807120   2.145011   3.522872
    14  C    2.467089   4.273285   3.207730   1.489233   3.297570
    15  H    2.720001   4.695390   3.796454   2.115568   3.411554
    16  H    2.654418   4.012768   2.603568   2.106473   3.675883
    17  H    3.410525   5.165100   4.042635   2.111017   4.144767
    18  C    2.530288   4.428217   4.278204   1.516008   2.489282
    19  C    3.231977   5.308165   5.205523   2.600744   3.057250
    20  H    3.417659   5.203811   4.849827   2.085531   3.504766
    21  H    2.661280   4.196967   4.448037   2.089783   2.242833
    22  C    3.194919   5.090316   5.297707   3.285059   2.775731
    23  H    3.708541   5.863944   5.456118   2.902001   3.803997
    24  H    4.166075   6.144015   6.155994   3.457802   3.832433
    25  C    4.678046   6.529318   6.731494   4.722311   4.254972
    26  H    3.157727   4.746591   5.305248   3.501549   2.399332
    27  H    2.723111   4.573878   4.659299   3.112860   2.549125
    28  H    5.334632   7.167535   7.456258   5.229872   4.795321
    29  H    5.067260   6.705076   7.064182   5.398410   4.575115
    30  H    5.085072   7.056463   7.005087   4.961183   4.873120
                   11         12         13         14         15
    11  H    0.000000
    12  H    3.705854   0.000000
    13  H    4.138872   1.764263   0.000000
    14  C    2.465857   2.387615   3.108987   0.000000
    15  H    2.338848   3.460251   4.008698   1.084952   0.000000
    16  H    2.549684   2.275640   3.530238   1.086550   1.774523
    17  H    3.532319   2.425366   3.033244   1.087236   1.780050
    18  C    3.087984   3.239078   2.419166   2.469329   2.715146
    19  C    3.345942   4.533430   3.922706   3.007227   2.664487
    20  H    3.993921   3.145781   2.155414   2.714029   3.134121
    21  H    3.433084   3.639418   2.453698   3.376060   3.670309
    22  C    3.030478   5.402222   4.938319   3.749850   3.165712
    23  H    3.614315   4.629844   4.318586   2.739233   2.198781
    24  H    4.388095   5.232493   4.321964   3.948775   3.678225
    25  C    4.357829   6.807709   6.325738   4.952881   4.180041
    26  H    3.225414   5.583975   4.918014   4.324495   3.935371
    27  H    2.233355   5.181146   5.065752   3.367558   2.671723
    28  H    5.186652   7.272980   6.549761   5.591956   4.925989
    29  H    4.636789   7.512106   7.101141   5.660622   4.847011
    30  H    4.633873   6.947165   6.640435   4.866745   3.967436
                   16         17         18         19         20
    16  H    0.000000
    17  H    1.778951   0.000000
    18  C    3.407149   2.682011   0.000000
    19  C    4.026784   3.262111   1.520049   0.000000
    20  H    3.669566   2.475818   1.088817   2.134404   0.000000
    21  H    4.179921   3.666530   1.089989   2.166020   1.762923
    22  C    4.574367   4.333549   2.616996   1.526247   3.515996
    23  H    3.774717   2.822333   2.157306   1.091624   2.445391
    24  H    5.003825   4.003455   2.073106   1.093068   2.344557
    25  C    5.798261   5.416176   3.923407   2.519200   4.641799
    26  H    5.083138   4.958455   2.800438   2.155563   3.779529
    27  H    4.003687   4.149623   2.971563   2.167205   3.929305
    28  H    6.524341   5.919306   4.161437   2.784589   4.744541
    29  H    6.393492   6.251092   4.759116   3.469779   5.580003
    30  H    5.703920   5.230483   4.258664   2.771929   4.837841
                   21         22         23         24         25
    21  H    0.000000
    22  C    2.884504   0.000000
    23  H    3.066831   2.160882   0.000000
    24  H    2.428343   2.137694   1.731259   0.000000
    25  C    4.214883   1.523457   2.787654   2.670164   0.000000
    26  H    2.636656   1.093261   3.060679   2.531436   2.151833
    27  H    3.358917   1.091699   2.496224   3.050195   2.141044
    28  H    4.319123   2.168006   3.169637   2.484246   1.090127
    29  H    4.939375   2.166284   3.776264   3.688367   1.088154
    30  H    4.781456   2.169296   2.595587   2.988075   1.090584
                   26         27         28         29         30
    26  H    0.000000
    27  H    1.753011   0.000000
    28  H    2.503107   3.055920   0.000000
    29  H    2.494588   2.466111   1.761290   0.000000
    30  H    3.065765   2.508787   1.762629   1.760786   0.000000
 Stoichiometry    C9H20N(1+)
 Framework group  C1[X(C9H20N)]
 Deg. of freedom    84
 Full point group                 C1      NOp   1
 Largest Abelian subgroup         C1      NOp   1
 Largest concise Abelian subgroup C1      NOp   1
                         Standard orientation:                         
 ---------------------------------------------------------------------
 Center     Atomic      Atomic             Coordinates (Angstroms)
 Number     Number       Type             X           Y           Z
 ---------------------------------------------------------------------
      1          6           0        2.068148   -0.836663   -0.439403
      2          6           0        2.764771    0.478088   -0.739315
      3          6           0        2.224295    1.396812    0.348594
      4          1           0        2.488263    0.848413   -1.726709
      5          1           0        3.845029    0.364149   -0.714722
      6          6           0        0.752388    1.037353    0.364768
      7          1           0        2.368087    2.452612    0.135668
      8          1           0        2.693086    1.182873    1.309925
      9          7           0        0.699480   -0.469681    0.147274
     10          1           0        0.231460    1.503279   -0.466785
     11          1           0        0.231646    1.279626    1.284742
     12          1           0        2.601338   -1.401484    0.320605
     13          1           0        1.918126   -1.474004   -1.304384
     14          6           0        0.511614   -1.164642    1.450942
     15          1           0       -0.443141   -0.879203    1.879999
     16          1           0        1.314875   -0.871554    2.121361
     17          1           0        0.540819   -2.239135    1.287559
     18          6           0       -0.379821   -0.881614   -0.834408
     19          6           0       -1.828647   -0.754423   -0.392509
     20          1           0       -0.175222   -1.926590   -1.061755
     21          1           0       -0.191553   -0.297435   -1.735167
     22          6           0       -2.382049    0.639422   -0.109008
     23          1           0       -2.026607   -1.416786    0.452316
     24          1           0       -2.393385   -1.184638   -1.223644
     25          6           0       -3.896189    0.612867    0.057110
     26          1           0       -2.115685    1.313982   -0.927078
     27          1           0       -1.936118    1.053842    0.797198
     28          1           0       -4.382792    0.255715   -0.850656
     29          1           0       -4.281971    1.606786    0.274771
     30          1           0       -4.189676   -0.045886    0.875208
 ---------------------------------------------------------------------
 Rotational constants (GHZ):           2.4796908           0.7142451           0.6647787
 Leave Link  202 at Mon Oct 31 15:21:52 2022, MaxMem=  8589934592 cpu:               0.2 elap:               0.0
 (Enter /usr/local/gaussian/g16a03/g16/l301.exe)
 General basis read from cards:  (5D, 7F)
 Centers:       4      5      7      8     10     11     12     13     15     16
 Centers:      17     20     21     23     24     26     27     28     29     30
 S 4 1.00
     Exponent=  3.3685014000D+01 Coefficients=  6.0680000000D-03
     Exponent=  5.0947880000D+00 Coefficients=  4.5316000000D-02
     Exponent=  1.1587860000D+00 Coefficients=  2.0284600000D-01
     Exponent=  3.2584000000D-01 Coefficients=  5.0370900000D-01
 S 1 1.00
     Exponent=  1.0274100000D-01 Coefficients=  1.0000000000D+00
 S 1 1.00
     Exponent=  3.2400000000D-02 Coefficients=  1.0000000000D+00
 P 2 1.00
     Exponent=  1.1588000000D+00 Coefficients=  1.8844000000D-01
     Exponent=  3.2580000000D-01 Coefficients=  8.8242000000D-01
 P 2 1.00
     Exponent=  1.0270000000D-01 Coefficients=  1.1780000000D-01
     Exponent=  3.2400000000D-02 Coefficients=  4.2000000000D-03
 ****
 Centers:       1      2      3      6     14     18     19     22     25
 S 5 1.00
     Exponent=  5.2406353000D+03 Coefficients=  9.3700000000D-04
     Exponent=  7.8220480000D+02 Coefficients=  7.2280000000D-03
     Exponent=  1.7835083000D+02 Coefficients=  3.6344000000D-02
     Exponent=  5.0815942000D+01 Coefficients=  1.3060000000D-01
     Exponent=  1.6823562000D+01 Coefficients=  3.1893100000D-01
 S 2 1.00
     Exponent=  6.1757760000D+00 Coefficients=  4.3874200000D-01
     Exponent=  2.4180490000D+00 Coefficients=  2.1497400000D-01
 S 1 1.00
     Exponent=  5.1190000000D-01 Coefficients=  1.0000000000D+00
 S 1 1.00
     Exponent=  1.5659000000D-01 Coefficients=  1.0000000000D+00
 S 1 1.00
     Exponent=  4.7900000000D-02 Coefficients=  1.0000000000D+00
 P 4 1.00
     Exponent=  1.8841800000D+01 Coefficients=  1.3887000000D-02
     Exponent=  4.1592400000D+00 Coefficients=  8.6279000000D-02
     Exponent=  1.2067100000D+00 Coefficients=  2.8874400000D-01
     Exponent=  3.8554000000D-01 Coefficients=  4.9941100000D-01
 P 1 1.00
     Exponent=  1.2194000000D-01 Coefficients=  1.0000000000D+00
 P 1 1.00
     Exponent=  3.8568000000D-02 Coefficients=  1.0000000000D+00
 D 2 1.00
     Exponent=  1.2067100000D+00 Coefficients=  2.6285200000D-01
     Exponent=  3.8554000000D-01 Coefficients=  8.0430000000D-01
 D 2 1.00
     Exponent=  1.2194000000D-01 Coefficients=  6.5350000000D-01
     Exponent=  3.8658000000D-02 Coefficients=  8.6360000000D-01
 ****
 Centers:       9
 S 5 1.00
     Exponent=  8.1040716000D+03 Coefficients=  8.0200000000D-04
     Exponent=  1.2160215000D+03 Coefficients=  6.1740000000D-03
     Exponent=  2.7723428000D+02 Coefficients=  3.1233000000D-02
     Exponent=  7.6904023000D+01 Coefficients=  1.1519800000D-01
     Exponent=  2.5874419000D+01 Coefficients=  2.9695100000D-01
 S 2 1.00
     Exponent=  9.3467670000D+00 Coefficients=  4.4734900000D-01
     Exponent=  3.5797940000D+00 Coefficients=  2.4500300000D-01
 S 1 1.00
     Exponent=  7.3961000000D-01 Coefficients=  1.0000000000D+00
 S 1 1.00
     Exponent=  2.2261700000D-01 Coefficients=  1.0000000000D+00
 S 1 1.00
     Exponent=  6.7006000000D-02 Coefficients=  1.0000000000D+00
 P 4 1.00
     Exponent=  2.6868987000D+01 Coefficients=  1.4478000000D-02
     Exponent=  5.9912270000D+00 Coefficients=  9.1156000000D-02
     Exponent=  1.7508420000D+00 Coefficients=  2.9742000000D-01
     Exponent=  5.6051100000D-01 Coefficients=  4.9379600000D-01
 P 1 1.00
     Exponent=  1.7594800000D-01 Coefficients=  1.0000000000D+00
 P 1 1.00
     Exponent=  5.5231000000D-02 Coefficients=  1.0000000000D+00
 D 2 1.00
     Exponent=  1.7508420000D+00 Coefficients=  2.2477400000D-01
     Exponent=  5.6051100000D-01 Coefficients=  6.5956200000D-01
 D 2 1.00
     Exponent=  1.7594800000D-01 Coefficients=  8.7135500000D-01
     Exponent=  5.5231000000D-02 Coefficients=  7.0421700000D-01
 ****
 Ernie: Thresh=  0.10000D-02 Tol=  0.10000D-05 Strict=F.
 The following finite field(s) will be applied:
 An electric field of             -0.0008  0.0000  0.0000
 In input orientation:  2.66081208D-04 -4.63601445D-04 -5.95209619D-04
 There are   440 symmetry adapted cartesian basis functions of A   symmetry.
 There are   420 symmetry adapted basis functions of A   symmetry.
   420 basis functions,   880 primitive gaussians,   440 cartesian basis functions
    40 alpha electrons       40 beta electrons
       nuclear repulsion energy       604.8043466459 Hartrees.
 IExCor= 4336 DFT=T Ex+Corr=M062X ExCW=0 ScaHFX=  0.540000
 ScaDFX=  1.000000  1.000000  1.000000  1.000000 ScalE2=  1.000000  1.000000
 IRadAn=      5 IRanWt=     -1 IRanGd=            0 ICorTp=0 IEmpDi=  4
 NAtoms=   30 NActive=   30 NUniq=   30 SFac= 1.00D+00 NAtFMM=   60 NAOKFM=F Big=F
 Integral buffers will be    131072 words long.
 Raffenetti 2 integral format.
 Two-electron integral symmetry is turned on.
 Leave Link  301 at Mon Oct 31 15:21:52 2022, MaxMem=  8589934592 cpu:               1.6 elap:               0.1
 (Enter /usr/local/gaussian/g16a03/g16/l302.exe)
 NPDir=0 NMtPBC=     1 NCelOv=     1 NCel=       1 NClECP=     1 NCelD=      1
         NCelK=      1 NCelE2=     1 NClLst=     1 CellRange=     0.0.
 One-electron integrals computed using PRISM.
 One-electron integral symmetry used in STVInt
 NBasis=   420 RedAO= T EigKep=  2.49D-06  NBF=   420
 NBsUse=   420 1.00D-06 EigRej= -1.00D+00 NBFU=   420
 Precomputing XC quadrature grid using
 IXCGrd= 4 IRadAn=           5 IRanWt=          -1 IRanGd=           0 AccXCQ= 0.00D+00.
 Generated NRdTot=       0 NPtTot=           0 NUsed=           0 NTot=          32
 NSgBfM=   438   438   438   438   438 MxSgAt=    30 MxSgA2=    30.
 Leave Link  302 at Mon Oct 31 15:21:53 2022, MaxMem=  8589934592 cpu:               6.1 elap:               0.4
 (Enter /usr/local/gaussian/g16a03/g16/l303.exe)
 DipDrv:  MaxL=1.
 The nuclear repulsion energy is now       604.8043466459 hartrees.
 Leave Link  303 at Mon Oct 31 15:21:53 2022, MaxMem=  8589934592 cpu:               2.5 elap:               0.2
 (Enter /usr/local/gaussian/g16a03/g16/l401.exe)
 ExpMin= 3.24D-02 ExpMax= 8.10D+03 ExpMxC= 1.22D+03 IAcc=3 IRadAn=         5 AccDes= 0.00D+00
 Harris functional with IExCor= 1009 and IRadAn=       5 diagonalized for initial guess.
 HarFok:  IExCor= 1009 AccDes= 0.00D+00 IRadAn=         5 IDoV= 1 UseB2=F ITyADJ=14
 ICtDFT=  3500011 ScaDFX=  1.000000  1.000000  1.000000  1.000000
 FoFCou: FMM=F IPFlag=           0 FMFlag=      100000 FMFlg1=           0
         NFxFlg=           0 DoJE=T BraDBF=F KetDBF=T FulRan=T
         wScrn=  0.000000 ICntrl=       500 IOpCl=  0 I1Cent=   200000004 NGrid=           0
         NMat0=    1 NMatS0=      1 NMatT0=    0 NMatD0=    1 NMtDS0=    0 NMtDT0=    0
 Petite list used in FoFCou.
 Harris En= -409.287633346546    
 JPrj=0 DoOrth=F DoCkMO=F.
 Leave Link  401 at Mon Oct 31 15:21:55 2022, MaxMem=  8589934592 cpu:              27.7 elap:               1.8
 (Enter /usr/local/gaussian/g16a03/g16/l502.exe)
 Integral symmetry usage will be decided dynamically.
 Closed shell SCF:
 Using DIIS extrapolation, IDIIS=  1040.
 NGot=  8589934592 LenX=  8589535990 LenY=  8589341949
 Requested convergence on RMS density matrix=1.00D-08 within 128 cycles.
 Requested convergence on MAX density matrix=1.00D-06.
 Requested convergence on             energy=1.00D-06.
 No special actions if energy rises.
 Fock matrices will be formed incrementally for  20 cycles.

 Cycle   1  Pass 1  IDiag  1:
 FoFJK:  IHMeth= 1 ICntrl=       0 DoSepK=F KAlg= 0 I1Cent=           0 FoldK=F
 IRaf= 990000000 NMat=       1 IRICut=       1 DoRegI=T DoRafI=F ISym2E= 0 IDoP0=0 IntGTp=1.
 FoFCou: FMM=F IPFlag=           0 FMFlag=      100000 FMFlg1=           0
         NFxFlg=           0 DoJE=F BraDBF=F KetDBF=F FulRan=T
         wScrn=  0.000000 ICntrl=         0 IOpCl=  0 I1Cent=           0 NGrid=           0
         NMat0=    1 NMatS0=      1 NMatT0=    0 NMatD0=    1 NMtDS0=    0 NMtDT0=    0
 Symmetry not used in FoFCou.
 E= -409.086324587903    
 DIIS: error= 1.69D-02 at cycle   1 NSaved=   1.
 NSaved= 1 IEnMin= 1 EnMin= -409.086324587903     IErMin= 1 ErrMin= 1.69D-02
 ErrMax= 1.69D-02  0.00D+00 EMaxC= 1.00D-01 BMatC= 3.48D-01 BMatP= 3.48D-01
 IDIUse=3 WtCom= 8.31D-01 WtEn= 1.69D-01
 Coeff-Com:  0.100D+01
 Coeff-En:   0.100D+01
 Coeff:      0.100D+01
 Gap=     0.414 Goal=   None    Shift=    0.000
 GapD=    0.414 DampG=2.000 DampE=0.500 DampFc=1.0000 IDamp=-1.
 RMSDP=8.48D-02 MaxDP=4.72D+00              OVMax= 1.48D-01

 Cycle   2  Pass 1  IDiag  1:
 RMSU=  2.47D-02    CP:  5.94D-01
 E= -409.154978889692     Delta-E=       -0.068654301789 Rises=F Damp=F
 DIIS: error= 1.37D-02 at cycle   2 NSaved=   2.
 NSaved= 2 IEnMin= 2 EnMin= -409.154978889692     IErMin= 2 ErrMin= 1.37D-02
 ErrMax= 1.37D-02  0.00D+00 EMaxC= 1.00D-01 BMatC= 2.68D-01 BMatP= 3.48D-01
 IDIUse=3 WtCom= 8.63D-01 WtEn= 1.37D-01
 Coeff-Com:  0.464D+00 0.536D+00
 Coeff-En:   0.432D+00 0.568D+00
 Coeff:      0.460D+00 0.540D+00
 Gap=     0.418 Goal=   None    Shift=    0.000
 RMSDP=2.53D-02 MaxDP=1.51D+00 DE=-6.87D-02 OVMax= 7.28D-02

 Cycle   3  Pass 1  IDiag  1:
 RMSU=  9.24D-03    CP:  7.07D-01  7.12D-01
 E= -409.397538398793     Delta-E=       -0.242559509100 Rises=F Damp=F
 DIIS: error= 3.58D-03 at cycle   3 NSaved=   3.
 NSaved= 3 IEnMin= 3 EnMin= -409.397538398793     IErMin= 3 ErrMin= 3.58D-03
 ErrMax= 3.58D-03  0.00D+00 EMaxC= 1.00D-01 BMatC= 8.15D-03 BMatP= 2.68D-01
 IDIUse=3 WtCom= 9.64D-01 WtEn= 3.58D-02
 Coeff-Com:  0.976D-01 0.185D+00 0.718D+00
 Coeff-En:   0.000D+00 0.000D+00 0.100D+01
 Coeff:      0.941D-01 0.178D+00 0.728D+00
 Gap=     0.401 Goal=   None    Shift=    0.000
 RMSDP=4.15D-03 MaxDP=3.86D-01 DE=-2.43D-01 OVMax= 1.92D-02

 Cycle   4  Pass 1  IDiag  1:
 RMSU=  2.21D-03    CP:  7.24D-01  7.44D-01  9.61D-01
 E= -409.402805564204     Delta-E=       -0.005267165412 Rises=F Damp=F
 DIIS: error= 1.24D-03 at cycle   4 NSaved=   4.
 NSaved= 4 IEnMin= 4 EnMin= -409.402805564204     IErMin= 4 ErrMin= 1.24D-03
 ErrMax= 1.24D-03  0.00D+00 EMaxC= 1.00D-01 BMatC= 1.63D-03 BMatP= 8.15D-03
 IDIUse=3 WtCom= 9.88D-01 WtEn= 1.24D-02
 Coeff-Com:  0.662D-02 0.380D-01 0.358D+00 0.597D+00
 Coeff-En:   0.000D+00 0.000D+00 0.127D+00 0.873D+00
 Coeff:      0.654D-02 0.375D-01 0.355D+00 0.601D+00
 Gap=     0.399 Goal=   None    Shift=    0.000
 RMSDP=1.11D-03 MaxDP=4.54D-02 DE=-5.27D-03 OVMax= 6.42D-03

 Cycle   5  Pass 1  IDiag  1:
 RMSU=  1.09D-03    CP:  7.24D-01  7.51D-01  9.64D-01  1.00D+00
 E= -409.404204248621     Delta-E=       -0.001398684417 Rises=F Damp=F
 DIIS: error= 1.64D-04 at cycle   5 NSaved=   5.
 NSaved= 5 IEnMin= 5 EnMin= -409.404204248621     IErMin= 5 ErrMin= 1.64D-04
 ErrMax= 1.64D-04  0.00D+00 EMaxC= 1.00D-01 BMatC= 3.40D-05 BMatP= 1.63D-03
 IDIUse=3 WtCom= 9.98D-01 WtEn= 1.64D-03
 Coeff-Com: -0.255D-02 0.232D-02 0.747D-01 0.197D+00 0.729D+00
 Coeff-En:   0.000D+00 0.000D+00 0.000D+00 0.000D+00 0.100D+01
 Coeff:     -0.254D-02 0.231D-02 0.746D-01 0.196D+00 0.729D+00
 Gap=     0.400 Goal=   None    Shift=    0.000
 RMSDP=2.52D-04 MaxDP=3.95D-02 DE=-1.40D-03 OVMax= 1.00D-03

 Cycle   6  Pass 1  IDiag  1:
 RMSU=  1.89D-04    CP:  7.24D-01  7.54D-01  9.75D-01  1.02D+00  9.47D-01
 E= -409.404235826369     Delta-E=       -0.000031577748 Rises=F Damp=F
 DIIS: error= 2.98D-05 at cycle   6 NSaved=   6.
 NSaved= 6 IEnMin= 6 EnMin= -409.404235826369     IErMin= 6 ErrMin= 2.98D-05
 ErrMax= 2.98D-05  0.00D+00 EMaxC= 1.00D-01 BMatC= 2.26D-06 BMatP= 3.40D-05
 IDIUse=1 WtCom= 1.00D+00 WtEn= 0.00D+00
 Coeff-Com: -0.121D-02-0.143D-02 0.751D-02 0.373D-01 0.252D+00 0.706D+00
 Coeff:     -0.121D-02-0.143D-02 0.751D-02 0.373D-01 0.252D+00 0.706D+00
 Gap=     0.400 Goal=   None    Shift=    0.000
 RMSDP=8.46D-05 MaxDP=3.72D-03 DE=-3.16D-05 OVMax= 2.53D-04

 Cycle   7  Pass 1  IDiag  1:
 RMSU=  7.66D-05    CP:  7.24D-01  7.54D-01  9.76D-01  1.03D+00  9.62D-01
                    CP:  9.45D-01
 E= -409.404237857154     Delta-E=       -0.000002030785 Rises=F Damp=F
 DIIS: error= 9.55D-06 at cycle   7 NSaved=   7.
 NSaved= 7 IEnMin= 7 EnMin= -409.404237857154     IErMin= 7 ErrMin= 9.55D-06
 ErrMax= 9.55D-06  0.00D+00 EMaxC= 1.00D-01 BMatC= 1.80D-07 BMatP= 2.26D-06
 IDIUse=1 WtCom= 1.00D+00 WtEn= 0.00D+00
 Coeff-Com: -0.295D-04-0.803D-03-0.654D-02-0.123D-01-0.682D-02 0.219D+00
 Coeff-Com:  0.808D+00
 Coeff:     -0.295D-04-0.803D-03-0.654D-02-0.123D-01-0.682D-02 0.219D+00
 Coeff:      0.808D+00
 Gap=     0.400 Goal=   None    Shift=    0.000
 RMSDP=3.70D-05 MaxDP=1.76D-03 DE=-2.03D-06 OVMax= 8.38D-05

 Cycle   8  Pass 1  IDiag  1:
 RMSU=  1.99D-05    CP:  7.24D-01  7.54D-01  9.76D-01  1.03D+00  9.84D-01
                    CP:  1.00D+00  1.04D+00
 E= -409.404238057759     Delta-E=       -0.000000200605 Rises=F Damp=F
 DIIS: error= 1.43D-06 at cycle   8 NSaved=   8.
 NSaved= 8 IEnMin= 8 EnMin= -409.404238057759     IErMin= 8 ErrMin= 1.43D-06
 ErrMax= 1.43D-06  0.00D+00 EMaxC= 1.00D-01 BMatC= 3.40D-09 BMatP= 1.80D-07
 IDIUse=1 WtCom= 1.00D+00 WtEn= 0.00D+00
 Coeff-Com:  0.267D-04-0.136D-03-0.155D-02-0.352D-02-0.908D-02 0.159D-01
 Coeff-Com:  0.144D+00 0.854D+00
 Coeff:      0.267D-04-0.136D-03-0.155D-02-0.352D-02-0.908D-02 0.159D-01
 Coeff:      0.144D+00 0.854D+00
 Gap=     0.400 Goal=   None    Shift=    0.000
 RMSDP=5.75D-06 MaxDP=3.02D-04 DE=-2.01D-07 OVMax= 1.48D-05

 Cycle   9  Pass 1  IDiag  1:
 RMSU=  4.07D-06    CP:  7.24D-01  7.54D-01  9.76D-01  1.03D+00  9.86D-01
                    CP:  1.01D+00  1.07D+00  1.02D+00
 E= -409.404238061554     Delta-E=       -0.000000003795 Rises=F Damp=F
 DIIS: error= 5.96D-07 at cycle   9 NSaved=   9.
 NSaved= 9 IEnMin= 9 EnMin= -409.404238061554     IErMin= 9 ErrMin= 5.96D-07
 ErrMax= 5.96D-07  0.00D+00 EMaxC= 1.00D-01 BMatC= 5.37D-10 BMatP= 3.40D-09
 IDIUse=1 WtCom= 1.00D+00 WtEn= 0.00D+00
 Coeff-Com:  0.986D-05 0.302D-05-0.108D-03-0.388D-03-0.265D-02-0.956D-02
 Coeff-Com: -0.645D-02 0.294D+00 0.725D+00
 Coeff:      0.986D-05 0.302D-05-0.108D-03-0.388D-03-0.265D-02-0.956D-02
 Coeff:     -0.645D-02 0.294D+00 0.725D+00
 Gap=     0.400 Goal=   None    Shift=    0.000
 RMSDP=1.53D-06 MaxDP=9.35D-05 DE=-3.79D-09 OVMax= 4.60D-06

 Cycle  10  Pass 1  IDiag  1:
 RMSU=  9.23D-07    CP:  7.24D-01  7.54D-01  9.76D-01  1.03D+00  9.86D-01
                    CP:  1.01D+00  1.08D+00  1.05D+00  9.24D-01
 E= -409.404238062072     Delta-E=       -0.000000000518 Rises=F Damp=F
 DIIS: error= 1.48D-07 at cycle  10 NSaved=  10.
 NSaved=10 IEnMin=10 EnMin= -409.404238062072     IErMin=10 ErrMin= 1.48D-07
 ErrMax= 1.48D-07  0.00D+00 EMaxC= 1.00D-01 BMatC= 4.37D-11 BMatP= 5.37D-10
 IDIUse=1 WtCom= 1.00D+00 WtEn= 0.00D+00
 Coeff-Com:  0.144D-05 0.106D-04 0.737D-04 0.122D-03-0.219D-03-0.442D-02
 Coeff-Com: -0.131D-01 0.423D-01 0.268D+00 0.707D+00
 Coeff:      0.144D-05 0.106D-04 0.737D-04 0.122D-03-0.219D-03-0.442D-02
 Coeff:     -0.131D-01 0.423D-01 0.268D+00 0.707D+00
 Gap=     0.400 Goal=   None    Shift=    0.000
 RMSDP=3.10D-07 MaxDP=1.37D-05 DE=-5.18D-10 OVMax= 1.28D-06

 Cycle  11  Pass 1  IDiag  1:
 RMSU=  2.46D-07    CP:  7.24D-01  7.54D-01  9.76D-01  1.03D+00  9.86D-01
                    CP:  1.01D+00  1.08D+00  1.05D+00  9.37D-01  8.50D-01
 E= -409.404238062119     Delta-E=       -0.000000000047 Rises=F Damp=F
 DIIS: error= 2.69D-08 at cycle  11 NSaved=  11.
 NSaved=11 IEnMin=11 EnMin= -409.404238062119     IErMin=11 ErrMin= 2.69D-08
 ErrMax= 2.69D-08  0.00D+00 EMaxC= 1.00D-01 BMatC= 1.06D-12 BMatP= 4.37D-11
 IDIUse=1 WtCom= 1.00D+00 WtEn= 0.00D+00
 Coeff-Com: -0.195D-07 0.247D-05 0.217D-04 0.425D-04 0.535D-04-0.626D-03
 Coeff-Com: -0.285D-02-0.199D-02 0.363D-01 0.173D+00 0.796D+00
 Coeff:     -0.195D-07 0.247D-05 0.217D-04 0.425D-04 0.535D-04-0.626D-03
 Coeff:     -0.285D-02-0.199D-02 0.363D-01 0.173D+00 0.796D+00
 Gap=     0.400 Goal=   None    Shift=    0.000
 RMSDP=6.89D-08 MaxDP=2.94D-06 DE=-4.71D-11 OVMax= 2.40D-07

 Cycle  12  Pass 1  IDiag  1:
 RMSU=  5.78D-08    CP:  7.24D-01  7.54D-01  9.76D-01  1.03D+00  9.86D-01
                    CP:  1.01D+00  1.08D+00  1.05D+00  9.38D-01  8.62D-01
                    CP:  1.01D+00
 E= -409.404238062124     Delta-E=       -0.000000000005 Rises=F Damp=F
 DIIS: error= 7.03D-09 at cycle  12 NSaved=  12.
 NSaved=12 IEnMin=12 EnMin= -409.404238062124     IErMin=12 ErrMin= 7.03D-09
 ErrMax= 7.03D-09  0.00D+00 EMaxC= 1.00D-01 BMatC= 1.05D-13 BMatP= 1.06D-12
 IDIUse=1 WtCom= 1.00D+00 WtEn= 0.00D+00
 Coeff-Com: -0.933D-07-0.323D-07 0.688D-06 0.258D-05 0.274D-04 0.140D-03
 Coeff-Com:  0.119D-03-0.364D-02-0.888D-02-0.299D-02 0.232D+00 0.783D+00
 Coeff:     -0.933D-07-0.323D-07 0.688D-06 0.258D-05 0.274D-04 0.140D-03
 Coeff:      0.119D-03-0.364D-02-0.888D-02-0.299D-02 0.232D+00 0.783D+00
 Gap=     0.400 Goal=   None    Shift=    0.000
 RMSDP=2.18D-08 MaxDP=9.60D-07 DE=-5.34D-12 OVMax= 7.27D-08

 Cycle  13  Pass 1  IDiag  1:
 RMSU=  1.75D-08    CP:  7.24D-01  7.54D-01  9.76D-01  1.03D+00  9.86D-01
                    CP:  1.01D+00  1.08D+00  1.05D+00  9.38D-01  8.67D-01
                    CP:  1.04D+00  9.52D-01
 E= -409.404238062126     Delta-E=       -0.000000000002 Rises=F Damp=F
 DIIS: error= 2.40D-09 at cycle  13 NSaved=  13.
 NSaved=13 IEnMin=13 EnMin= -409.404238062126     IErMin=13 ErrMin= 2.40D-09
 ErrMax= 2.40D-09  0.00D+00 EMaxC= 1.00D-01 BMatC= 1.06D-14 BMatP= 1.05D-13
 IDIUse=1 WtCom= 1.00D+00 WtEn= 0.00D+00
 Coeff-Com: -0.279D-07-0.185D-06-0.126D-05-0.204D-05 0.622D-05 0.102D-03
 Coeff-Com:  0.256D-03-0.124D-02-0.600D-02-0.140D-01 0.254D-01 0.283D+00
 Coeff-Com:  0.713D+00
 Coeff:     -0.279D-07-0.185D-06-0.126D-05-0.204D-05 0.622D-05 0.102D-03
 Coeff:      0.256D-03-0.124D-02-0.600D-02-0.140D-01 0.254D-01 0.283D+00
 Coeff:      0.713D+00
 Gap=     0.400 Goal=   None    Shift=    0.000
 RMSDP=5.23D-09 MaxDP=2.19D-07 DE=-2.27D-12 OVMax= 2.13D-08

 SCF Done:  E(RM062X) =  -409.404238062     A.U. after   13 cycles
            NFock= 13  Conv=0.52D-08     -V/T= 2.0063
 KE= 4.068482816907D+02 PE=-2.142988739269D+03 EE= 7.219318728703D+02
 Leave Link  502 at Mon Oct 31 15:24:45 2022, MaxMem=  8589934592 cpu:            2723.5 elap:             170.7
 (Enter /usr/local/gaussian/g16a03/g16/l801.exe)
 DoSCS=F DFT=T ScalE2(SS,OS)=  1.000000  1.000000
 Range of M.O.s used for correlation:     1   420
 NBasis=   420 NAE=    40 NBE=    40 NFC=     0 NFV=     0
 NROrb=    420 NOA=    40 NOB=    40 NVA=   380 NVB=   380

 **** Warning!!: The largest alpha MO coefficient is  0.86231760D+02

 Leave Link  801 at Mon Oct 31 15:24:46 2022, MaxMem=  8589934592 cpu:               0.8 elap:               0.1
 (Enter /usr/local/gaussian/g16a03/g16/l1002.exe)
 Minotr:  Closed shell wavefunction.
          Direct CPHF calculation.
          Differentiating once with respect to electric field.
                with respect to dipole field.
          Electric field/nuclear overlap derivatives assumed to be zero.
          Requested convergence is 1.0D-08 RMS, and 1.0D-07 maximum.
          Secondary convergence is 1.0D-12 RMS, and 1.0D-12 maximum.
          NewPWx=F KeepS1=T KeepF1=T KeepIn=T MapXYZ=F SortEE=F KeepMc=T.
         9298 words used for storage of precomputed grid.
 Two-electron integral symmetry used by symmetrizing perturbed Fock matrices.
          MDV=    8589934592 using IRadAn=       1.
          Solving linear equations simultaneously, MaxMat=     384.
          There are     3 degrees of freedom in the 1st order CPHF.  IDoFFX=0 NUNeed=     3.
      3 vectors produced by pass  0 Test12= 5.07D-13 3.33D-08 XBig12= 4.79D+01 1.02D+00.
 AX will form     3 AO Fock derivatives at one time.
 FoFJK:  IHMeth= 1 ICntrl=       0 DoSepK=F KAlg= 0 I1Cent=           0 FoldK=F
 IRaf= 980000000 NMat=       3 IRICut=       1 DoRegI=T DoRafI=F ISym2E=-1 IDoP0=0 IntGTp=1.
 FoFCou: FMM=F IPFlag=           0 FMFlag=      100000 FMFlg1=           0
         NFxFlg=           0 DoJE=F BraDBF=F KetDBF=F FulRan=T
         wScrn=  0.000000 ICntrl=         0 IOpCl=  0 I1Cent=           0 NGrid=           0
         NMat0=    3 NMatS0=      3 NMatT0=    0 NMatD0=    3 NMtDS0=    0 NMtDT0=    0
 Petite list used in FoFCou.
      3 vectors produced by pass  1 Test12= 5.07D-13 3.33D-08 XBig12= 4.71D+00 2.22D-01.
      3 vectors produced by pass  2 Test12= 5.07D-13 3.33D-08 XBig12= 5.24D-01 4.79D-02.
      3 vectors produced by pass  3 Test12= 5.07D-13 3.33D-08 XBig12= 5.51D-02 1.74D-02.
      3 vectors produced by pass  4 Test12= 5.07D-13 3.33D-08 XBig12= 7.08D-03 5.43D-03.
      3 vectors produced by pass  5 Test12= 5.07D-13 3.33D-08 XBig12= 9.85D-04 2.87D-03.
      3 vectors produced by pass  6 Test12= 5.07D-13 3.33D-08 XBig12= 9.12D-05 5.51D-04.
      3 vectors produced by pass  7 Test12= 5.07D-13 3.33D-08 XBig12= 1.06D-05 2.42D-04.
      3 vectors produced by pass  8 Test12= 5.07D-13 3.33D-08 XBig12= 6.06D-07 7.17D-05.
      3 vectors produced by pass  9 Test12= 5.07D-13 3.33D-08 XBig12= 5.22D-08 2.14D-05.
      3 vectors produced by pass 10 Test12= 5.07D-13 3.33D-08 XBig12= 7.60D-09 6.45D-06.
      3 vectors produced by pass 11 Test12= 5.07D-13 3.33D-08 XBig12= 4.39D-10 1.72D-06.
      3 vectors produced by pass 12 Test12= 5.07D-13 3.33D-08 XBig12= 1.84D-11 3.66D-07.
      2 vectors produced by pass 13 Test12= 5.07D-13 3.33D-08 XBig12= 8.79D-13 7.11D-08.
 InvSVY:  IOpt=1 It=  1 EMax= 1.78D-15
 Solved reduced A of dimension    41 with     3 vectors.
 FullF1:  Do perturbations      1 to       3.
 SCF Polarizability for W=    0.000000:
                1             2             3 
      1  0.124501D+03
      2  0.818115D+00  0.100883D+03
      3 -0.148181D+01  0.690027D+00  0.947864D+02
 Isotropic polarizability for W=    0.000000      106.72 Bohr**3.
 SCF Static Hyperpolarizability:
 K=  1 block:
                1 
      1  0.284850D+02
 K=  2 block:
                1             2 
      1 -0.136113D+02
      2 -0.490108D+01 -0.165854D+02
 K=  3 block:
                1             2             3 
      1 -0.119870D+01
      2 -0.247254D+01 -0.502932D+01
      3 -0.768780D+01 -0.523180D+01 -0.380947D+01
 End of Minotr F.D. properties file   721 does not exist.
 End of Minotr F.D. properties file   722 does not exist.
 End of Minotr F.D. properties file   788 does not exist.
 Leave Link 1002 at Mon Oct 31 15:30:45 2022, MaxMem=  8589934592 cpu:            5736.9 elap:             359.6
 (Enter /usr/local/gaussian/g16a03/g16/l601.exe)
 Copying SCF densities to generalized density rwf, IOpCl= 0 IROHF=0.

 **********************************************************************

            Population analysis using the SCF density.

 **********************************************************************

 Orbital symmetries:
       Occupied  (A) (A) (A) (A) (A) (A) (A) (A) (A) (A) (A) (A)
                 (A) (A) (A) (A) (A) (A) (A) (A) (A) (A) (A) (A)
                 (A) (A) (A) (A) (A) (A) (A) (A) (A) (A) (A) (A)
                 (A) (A) (A) (A)
       Virtual   (A) (A) (A) (A) (A) (A) (A) (A) (A) (A) (A) (A)
                 (A) (A) (A) (A) (A) (A) (A) (A) (A) (A) (A) (A)
                 (A) (A) (A) (A) (A) (A) (A) (A) (A) (A) (A) (A)
                 (A) (A) (A) (A) (A) (A) (A) (A) (A) (A) (A) (A)
                 (A) (A) (A) (A) (A) (A) (A) (A) (A) (A) (A) (A)
                 (A) (A) (A) (A) (A) (A) (A) (A) (A) (A) (A) (A)
                 (A) (A) (A) (A) (A) (A) (A) (A) (A) (A) (A) (A)
                 (A) (A) (A) (A) (A) (A) (A) (A) (A) (A) (A) (A)
                 (A) (A) (A) (A) (A) (A) (A) (A) (A) (A) (A) (A)
                 (A) (A) (A) (A) (A) (A) (A) (A) (A) (A) (A) (A)
                 (A) (A) (A) (A) (A) (A) (A) (A) (A) (A) (A) (A)
                 (A) (A) (A) (A) (A) (A) (A) (A) (A) (A) (A) (A)
                 (A) (A) (A) (A) (A) (A) (A) (A) (A) (A) (A) (A)
                 (A) (A) (A) (A) (A) (A) (A) (A) (A) (A) (A) (A)
                 (A) (A) (A) (A) (A) (A) (A) (A) (A) (A) (A) (A)
                 (A) (A) (A) (A) (A) (A) (A) (A) (A) (A) (A) (A)
                 (A) (A) (A) (A) (A) (A) (A) (A) (A) (A) (A) (A)
                 (A) (A) (A) (A) (A) (A) (A) (A) (A) (A) (A) (A)
                 (A) (A) (A) (A) (A) (A) (A) (A) (A) (A) (A) (A)
                 (A) (A) (A) (A) (A) (A) (A) (A) (A) (A) (A) (A)
                 (A) (A) (A) (A) (A) (A) (A) (A) (A) (A) (A) (A)
                 (A) (A) (A) (A) (A) (A) (A) (A) (A) (A) (A) (A)
                 (A) (A) (A) (A) (A) (A) (A) (A) (A) (A) (A) (A)
                 (A) (A) (A) (A) (A) (A) (A) (A) (A) (A) (A) (A)
                 (A) (A) (A) (A) (A) (A) (A) (A) (A) (A) (A) (A)
                 (A) (A) (A) (A) (A) (A) (A) (A) (A) (A) (A) (A)
                 (A) (A) (A) (A) (A) (A) (A) (A) (A) (A) (A) (A)
                 (A) (A) (A) (A) (A) (A) (A) (A) (A) (A) (A) (A)
                 (A) (A) (A) (A) (A) (A) (A) (A) (A) (A) (A) (A)
                 (A) (A) (A) (A) (A) (A) (A) (A) (A) (A) (A) (A)
                 (A) (A) (A) (A) (A) (A) (A) (A) (A) (A) (A) (A)
                 (A) (A) (A) (A) (A) (A) (A) (A)
 The electronic state is 1-A.
 Alpha  occ. eigenvalues --  -15.02502 -10.75410 -10.75347 -10.75205 -10.75150
 Alpha  occ. eigenvalues --  -10.70283 -10.70224 -10.69586 -10.67918 -10.65316
 Alpha  occ. eigenvalues --   -1.28271  -1.08139  -1.04434  -1.01135  -0.98928
 Alpha  occ. eigenvalues --   -0.95307  -0.88317  -0.84901  -0.83746  -0.81044
 Alpha  occ. eigenvalues --   -0.76353  -0.74842  -0.71729  -0.69294  -0.68814
 Alpha  occ. eigenvalues --   -0.66555  -0.65827  -0.63462  -0.62702  -0.61536
 Alpha  occ. eigenvalues --   -0.61515  -0.59054  -0.58067  -0.57447  -0.57127
 Alpha  occ. eigenvalues --   -0.56884  -0.55318  -0.53313  -0.52483  -0.52284
 Alpha virt. eigenvalues --   -0.12322  -0.10995  -0.10670  -0.10204  -0.08645
 Alpha virt. eigenvalues --   -0.08419  -0.08344  -0.08014  -0.07919  -0.06862
 Alpha virt. eigenvalues --   -0.05987  -0.05520  -0.05313  -0.05201  -0.04896
 Alpha virt. eigenvalues --   -0.04665  -0.03883  -0.03409  -0.03069  -0.02821
 Alpha virt. eigenvalues --   -0.02541  -0.02196  -0.01818  -0.01468  -0.01086
 Alpha virt. eigenvalues --   -0.00746  -0.00718  -0.00177   0.00284   0.00479
 Alpha virt. eigenvalues --    0.00659   0.00732   0.01051   0.01404   0.01469
 Alpha virt. eigenvalues --    0.01631   0.01796   0.01911   0.02189   0.02435
 Alpha virt. eigenvalues --    0.02769   0.03229   0.03796   0.03818   0.03978
 Alpha virt. eigenvalues --    0.04260   0.04750   0.05027   0.05311   0.05671
 Alpha virt. eigenvalues --    0.05859   0.06266   0.06601   0.06839   0.06971
 Alpha virt. eigenvalues --    0.07385   0.07773   0.08042   0.08339   0.08643
 Alpha virt. eigenvalues --    0.09136   0.09379   0.09661   0.10089   0.10544
 Alpha virt. eigenvalues --    0.10861   0.11011   0.11591   0.12103   0.12536
 Alpha virt. eigenvalues --    0.12994   0.13079   0.13902   0.14278   0.14569
 Alpha virt. eigenvalues --    0.14714   0.15326   0.15725   0.16142   0.16293
 Alpha virt. eigenvalues --    0.16755   0.17019   0.17469   0.18045   0.18201
 Alpha virt. eigenvalues --    0.18375   0.19149   0.19539   0.19867   0.20073
 Alpha virt. eigenvalues --    0.20458   0.20861   0.21503   0.21627   0.22208
 Alpha virt. eigenvalues --    0.22507   0.22880   0.22997   0.23416   0.23898
 Alpha virt. eigenvalues --    0.24261   0.24483   0.24531   0.25256   0.25651
 Alpha virt. eigenvalues --    0.25861   0.26043   0.26494   0.26825   0.27244
 Alpha virt. eigenvalues --    0.27490   0.27892   0.28253   0.28442   0.28650
 Alpha virt. eigenvalues --    0.29274   0.29473   0.29625   0.30152   0.30561
 Alpha virt. eigenvalues --    0.30813   0.31219   0.31563   0.31986   0.32708
 Alpha virt. eigenvalues --    0.33170   0.33783   0.33901   0.34783   0.34892
 Alpha virt. eigenvalues --    0.35275   0.35574   0.35924   0.36319   0.36632
 Alpha virt. eigenvalues --    0.37075   0.37182   0.37823   0.37975   0.38376
 Alpha virt. eigenvalues --    0.38695   0.38976   0.39632   0.39934   0.40611
 Alpha virt. eigenvalues --    0.40663   0.40961   0.41355   0.41741   0.41985
 Alpha virt. eigenvalues --    0.42224   0.42597   0.43235   0.43879   0.44011
 Alpha virt. eigenvalues --    0.44399   0.44591   0.45017   0.45246   0.45500
 Alpha virt. eigenvalues --    0.46167   0.46923   0.47213   0.47729   0.48443
 Alpha virt. eigenvalues --    0.48713   0.48980   0.49258   0.49828   0.49926
 Alpha virt. eigenvalues --    0.51501   0.51588   0.52222   0.52572   0.52918
 Alpha virt. eigenvalues --    0.53668   0.53914   0.54501   0.54786   0.55546
 Alpha virt. eigenvalues --    0.56142   0.57073   0.57848   0.58765   0.58958
 Alpha virt. eigenvalues --    0.59663   0.60041   0.60689   0.60915   0.61385
 Alpha virt. eigenvalues --    0.61766   0.62464   0.63004   0.63695   0.64213
 Alpha virt. eigenvalues --    0.65000   0.65611   0.66633   0.66902   0.67608
 Alpha virt. eigenvalues --    0.68624   0.69404   0.70539   0.71310   0.72379
 Alpha virt. eigenvalues --    0.73028   0.74417   0.75140   0.76772   0.77292
 Alpha virt. eigenvalues --    0.78301   0.78413   0.79882   0.81168   0.81910
 Alpha virt. eigenvalues --    0.82733   0.83202   0.84502   0.85147   0.86251
 Alpha virt. eigenvalues --    0.86528   0.88246   0.89486   0.90238   0.90518
 Alpha virt. eigenvalues --    0.91847   0.93105   0.93703   0.94456   0.95410
 Alpha virt. eigenvalues --    0.96273   0.97409   0.98318   0.99405   0.99806
 Alpha virt. eigenvalues --    1.00634   1.01257   1.02670   1.03762   1.05197
 Alpha virt. eigenvalues --    1.06212   1.06870   1.07429   1.08228   1.08730
 Alpha virt. eigenvalues --    1.09582   1.10666   1.11900   1.12978   1.14998
 Alpha virt. eigenvalues --    1.15260   1.16338   1.16925   1.18391   1.19534
 Alpha virt. eigenvalues --    1.20191   1.21761   1.24022   1.24738   1.26052
 Alpha virt. eigenvalues --    1.26340   1.28143   1.29056   1.30618   1.30955
 Alpha virt. eigenvalues --    1.32424   1.32760   1.33308   1.34406   1.36228
 Alpha virt. eigenvalues --    1.36379   1.37705   1.39266   1.39792   1.40565
 Alpha virt. eigenvalues --    1.41443   1.42328   1.43049   1.43807   1.45765
 Alpha virt. eigenvalues --    1.46190   1.46802   1.47342   1.48539   1.49766
 Alpha virt. eigenvalues --    1.50421   1.52142   1.52480   1.52855   1.53201
 Alpha virt. eigenvalues --    1.54352   1.55161   1.56655   1.57965   1.59643
 Alpha virt. eigenvalues --    1.60047   1.61514   1.62633   1.63528   1.64844
 Alpha virt. eigenvalues --    1.65743   1.66392   1.68071   1.70122   1.71194
 Alpha virt. eigenvalues --    1.71866   1.73027   1.74175   1.75819   1.76023
 Alpha virt. eigenvalues --    1.77264   1.77942   1.80092   1.81835   1.82222
 Alpha virt. eigenvalues --    1.83205   1.84293   1.85938   1.87511   1.88805
 Alpha virt. eigenvalues --    1.90535   1.91503   1.92730   1.95975   1.96708
 Alpha virt. eigenvalues --    1.97374   1.98896   1.99288   2.00800   2.02860
 Alpha virt. eigenvalues --    2.03223   2.05574   2.06077   2.07871   2.08467
 Alpha virt. eigenvalues --    2.12012   2.13778   2.14527   2.16081   2.16668
 Alpha virt. eigenvalues --    2.17567   2.18051   2.19361   2.21054   2.25535
 Alpha virt. eigenvalues --    2.27349   2.29411   2.31410   2.32914   2.36244
 Alpha virt. eigenvalues --    2.38177   2.39795   2.42812   2.45376   2.47148
 Alpha virt. eigenvalues --    2.49241   2.50438   2.52832   2.54392   2.55474
 Alpha virt. eigenvalues --    2.59667   2.62451   2.66005   2.66407   2.71804
 Alpha virt. eigenvalues --    2.73110   2.76080   2.79050   2.83293   2.90033
 Alpha virt. eigenvalues --   21.87132  21.91057  22.00267  22.04511  22.06909
 Alpha virt. eigenvalues --   22.11194  22.17526  22.20834  22.23779  33.14196
          Condensed to atoms (all electrons):
               1          2          3          4          5          6
     1  C   34.320124 -11.786102   7.818619   0.018643   1.364787 -16.711935
     2  C  -11.786102  30.034174  -5.207305   1.313894  -5.123182   1.960245
     3  C    7.818619  -5.207305  34.593239  -0.513734   0.627148 -17.009377
     4  H    0.018643   1.313894  -0.513734   9.365971  -5.154030   0.804534
     5  H    1.364787  -5.123182   0.627148  -5.154030   7.618906  -0.026033
     6  C  -16.711935   1.960245 -17.009377   0.804534  -0.026033  45.728438
     7  H    0.849107   0.160719  -4.023635  -1.066185   0.589149  -0.082476
     8  H   -0.976259  -0.132291   0.075142   1.283982  -1.142115   2.509183
     9  N   -5.534206   1.649599   0.250057  -0.799090   0.932480  -2.302738
    10  H   -0.952533  -3.536103  -1.844604  -0.448949   0.193321   0.541060
    11  H    1.263001   0.871952  -0.097801  -0.573649   0.295811  -4.426835
    12  H    1.393530   0.876125  -0.881552   1.466678  -1.485342  -2.111999
    13  H    0.651976  -3.337481   1.487254  -1.651058   1.021244  -0.368012
    14  C   -2.775074  -0.716460  -3.744042  -0.660113   0.594182  -1.543635
    15  H    2.428567  -0.506930   0.939197  -0.085712  -0.031042  -1.757520
    16  H   -2.485229   0.167736  -2.960455  -0.005011   0.217977   3.776517
    17  H   -0.256974   0.212188  -0.125062  -0.157090   0.120779   0.388150
    18  C   -0.070302  -3.883965  -3.532284  -0.482433   0.680865  -3.082173
    19  C   -0.400407  -0.657134   1.341826  -0.491726   0.280116  -4.319756
    20  H   -0.074035   0.769542  -0.685820   0.040178   0.001475   0.734036
    21  H    0.133563  -1.817961   0.826508  -1.084717   0.412274  -0.144618
    22  C   -2.200457   0.735125  -3.666775   0.449498  -0.156257   3.138034
    23  H   -0.222438   0.328101  -1.164502  -0.098408   0.040226  -0.835756
    24  H   -0.286966  -0.152903   0.391261   0.057885  -0.015837   1.314749
    25  C   -0.119738  -0.026628  -0.627325   0.024232  -0.007360  -1.759975
    26  H   -0.098661   0.633265  -0.622983   0.173088  -0.026413  -0.240350
    27  H   -0.075764  -0.063081   0.725231  -0.019190   0.010144   1.984895
    28  H   -0.044249  -0.033227  -0.015885  -0.010424   0.000845  -0.252196
    29  H    0.019645  -0.015078  -0.051018   0.000934  -0.000967  -0.251915
    30  H    0.020262   0.029316   0.037172   0.009823  -0.001286   0.463446
               7          8          9         10         11         12
     1  C    0.849107  -0.976259  -5.534206  -0.952533   1.263001   1.393530
     2  C    0.160719  -0.132291   1.649599  -3.536103   0.871952   0.876125
     3  C   -4.023635   0.075142   0.250057  -1.844604  -0.097801  -0.881552
     4  H   -1.066185   1.283982  -0.799090  -0.448949  -0.573649   1.466678
     5  H    0.589149  -1.142115   0.932480   0.193321   0.295811  -1.485342
     6  C   -0.082476   2.509183  -2.302738   0.541060  -4.426835  -2.111999
     7  H    7.962762  -5.259487   0.601421  -2.129566   0.896304   0.142765
     8  H   -5.259487   9.057291   0.225799   2.304284  -1.837358   0.095145
     9  N    0.601421   0.225799  51.284760   0.348197  -0.641426  -1.527786
    10  H   -2.129566   2.304284   0.348197  15.240847  -6.877646  -0.676306
    11  H    0.896304  -1.837358  -0.641426  -6.877646  12.718297  -0.118924
    12  H    0.142765   0.095145  -1.527786  -0.676306  -0.118924  10.908447
    13  H    0.202559  -0.213169  -2.716496   0.167719   0.120701  -5.050600
    14  C    0.914595  -0.958560  -6.949307  -0.897291   1.152346   1.859818
    15  H    0.172221   0.053233  -3.585254  -0.104114  -0.351708   1.145054
    16  H    0.344360  -1.488688  -2.620843  -0.553848   0.860750  -0.700039
    17  H   -0.003073  -0.043080  -4.199198   0.166716   0.221354  -1.096807
    18  C    0.640234  -0.900223  -7.035846   0.982964   0.618813  -1.248502
    19  C    0.114960  -0.121917   6.045241  -1.429809   0.251830  -0.360210
    20  H    0.009932  -0.120596  -3.998256  -0.127845   0.185478   0.302416
    21  H    0.328138  -0.283235  -1.932370   0.488529  -0.390007  -0.445330
    22  C    0.101427  -0.113149  -2.398267   2.414625  -1.483307  -0.256870
    23  H    0.035835  -0.175933  -4.843338   0.051028   0.265643  -0.301487
    24  H   -0.005494   0.026781  -0.173914  -0.020793   0.178535   0.016239
    25  C    0.025152  -0.040308  -2.092959   0.769608  -0.189391  -0.050244
    26  H    0.029698  -0.085680  -1.711811  -1.867816   0.632316   0.028416
    27  H    0.077736  -0.050802   2.061493   0.172737  -1.929513  -0.047982
    28  H   -0.002558   0.004097   0.199290   0.179074  -0.205142  -0.005963
    29  H    0.001286  -0.006606  -0.267648   0.110963   0.066613   0.002371
    30  H    0.003570   0.002752   0.052002  -0.177062   0.159122  -0.001971
              13         14         15         16         17         18
     1  C    0.651976  -2.775074   2.428567  -2.485229  -0.256974  -0.070302
     2  C   -3.337481  -0.716460  -0.506930   0.167736   0.212188  -3.883965
     3  C    1.487254  -3.744042   0.939197  -2.960455  -0.125062  -3.532284
     4  H   -1.651058  -0.660113  -0.085712  -0.005011  -0.157090  -0.482433
     5  H    1.021244   0.594182  -0.031042   0.217977   0.120779   0.680865
     6  C   -0.368012  -1.543635  -1.757520   3.776517   0.388150  -3.082173
     7  H    0.202559   0.914595   0.172221   0.344360  -0.003073   0.640234
     8  H   -0.213169  -0.958560   0.053233  -1.488688  -0.043080  -0.900223
     9  N   -2.716496  -6.949307  -3.585254  -2.620843  -4.199198  -7.035846
    10  H    0.167719  -0.897291  -0.104114  -0.553848   0.166716   0.982964
    11  H    0.120701   1.152346  -0.351708   0.860750   0.221354   0.618813
    12  H   -5.050600   1.859818   1.145054  -0.700039  -1.096807  -1.248502
    13  H    9.478611  -1.281797   0.109359  -0.539620   0.644741   2.591613
    14  C   -1.281797  17.738905  -0.229286  -0.562697   0.589182  -1.522215
    15  H    0.109359  -0.229286  14.415517  -4.955855  -2.678283  -1.874207
    16  H   -0.539620  -0.562697  -4.955855  11.388245  -1.912362   1.054324
    17  H    0.644741   0.589182  -2.678283  -1.912362   9.589997   1.403030
    18  C    2.591613  -1.522215  -1.874207   1.054324   1.403030  36.399451
    19  C    0.208408  -2.560250   0.759995   0.388375  -2.091593 -15.292289
    20  H   -0.853077   0.829611   0.538595   0.336516  -0.041967  -1.967318
    21  H    0.640429   0.303219  -0.225123   0.314822  -0.233147   0.065018
    22  C    0.183268  -0.222969  -0.468040   0.576866   0.982993  -1.909938
    23  H   -0.162685   1.652062  -1.015979   0.711716  -0.284872   2.666060
    24  H    0.153667   0.530756   0.250226   0.011799   0.381456   1.891380
    25  C   -0.062456   0.835285  -0.193585   0.171543   0.135918   0.871441
    26  H    0.010641   1.148820   0.537697   0.041983   0.118661   0.649451
    27  H    0.136221  -0.976456  -1.551197   0.313575  -0.196366  -2.318227
    28  H   -0.005928  -0.019298  -0.121167   0.015842  -0.015903  -0.207590
    29  H   -0.002319   0.029594   0.059665   0.001449   0.009853   0.594746
    30  H   -0.004827  -0.007745   0.159984  -0.041541   0.051969  -0.497586
              19         20         21         22         23         24
     1  C   -0.400407  -0.074035   0.133563  -2.200457  -0.222438  -0.286966
     2  C   -0.657134   0.769542  -1.817961   0.735125   0.328101  -0.152903
     3  C    1.341826  -0.685820   0.826508  -3.666775  -1.164502   0.391261
     4  H   -0.491726   0.040178  -1.084717   0.449498  -0.098408   0.057885
     5  H    0.280116   0.001475   0.412274  -0.156257   0.040226  -0.015837
     6  C   -4.319756   0.734036  -0.144618   3.138034  -0.835756   1.314749
     7  H    0.114960   0.009932   0.328138   0.101427   0.035835  -0.005494
     8  H   -0.121917  -0.120596  -0.283235  -0.113149  -0.175933   0.026781
     9  N    6.045241  -3.998256  -1.932370  -2.398267  -4.843338  -0.173914
    10  H   -1.429809  -0.127845   0.488529   2.414625   0.051028  -0.020793
    11  H    0.251830   0.185478  -0.390007  -1.483307   0.265643   0.178535
    12  H   -0.360210   0.302416  -0.445330  -0.256870  -0.301487   0.016239
    13  H    0.208408  -0.853077   0.640429   0.183268  -0.162685   0.153667
    14  C   -2.560250   0.829611   0.303219  -0.222969   1.652062   0.530756
    15  H    0.759995   0.538595  -0.225123  -0.468040  -1.015979   0.250226
    16  H    0.388375   0.336516   0.314822   0.576866   0.711716   0.011799
    17  H   -2.091593  -0.041967  -0.233147   0.982993  -0.284872   0.381456
    18  C  -15.292289  -1.967318   0.065018  -1.909938   2.666060   1.891380
    19  C   41.042688  -2.992201   1.712151 -13.180893  -1.914053  -5.413293
    20  H   -2.992201  12.380563  -7.022093   3.300134  -0.254193   0.860038
    21  H    1.712151  -7.022093  14.470695  -3.374487   1.371387  -1.452711
    22  C  -13.180893   3.300134  -3.374487  36.009773  -2.135331   0.071429
    23  H   -1.914053  -0.254193   1.371387  -2.135331  14.083930  -6.499294
    24  H   -5.413293   0.860038  -1.452711   0.071429  -6.499294  10.341951
    25  C    1.011636  -0.162455   0.412917 -11.653223   1.535396   0.175451
    26  H    1.774259  -0.092031  -1.297416  -2.882718  -0.299647   0.196907
    27  H   -0.042417   0.199680   0.306710   0.103563  -0.103115  -0.441592
    28  H   -1.530531   0.056166   0.286061   2.138570   0.742308  -1.493215
    29  H    2.092684   0.012807   0.065259  -1.694167   0.118728   0.342722
    30  H   -0.907045  -0.084221  -0.214402   3.563905  -1.187377   0.661131
              25         26         27         28         29         30
     1  C   -0.119738  -0.098661  -0.075764  -0.044249   0.019645   0.020262
     2  C   -0.026628   0.633265  -0.063081  -0.033227  -0.015078   0.029316
     3  C   -0.627325  -0.622983   0.725231  -0.015885  -0.051018   0.037172
     4  H    0.024232   0.173088  -0.019190  -0.010424   0.000934   0.009823
     5  H   -0.007360  -0.026413   0.010144   0.000845  -0.000967  -0.001286
     6  C   -1.759975  -0.240350   1.984895  -0.252196  -0.251915   0.463446
     7  H    0.025152   0.029698   0.077736  -0.002558   0.001286   0.003570
     8  H   -0.040308  -0.085680  -0.050802   0.004097  -0.006606   0.002752
     9  N   -2.092959  -1.711811   2.061493   0.199290  -0.267648   0.052002
    10  H    0.769608  -1.867816   0.172737   0.179074   0.110963  -0.177062
    11  H   -0.189391   0.632316  -1.929513  -0.205142   0.066613   0.159122
    12  H   -0.050244   0.028416  -0.047982  -0.005963   0.002371  -0.001971
    13  H   -0.062456   0.010641   0.136221  -0.005928  -0.002319  -0.004827
    14  C    0.835285   1.148820  -0.976456  -0.019298   0.029594  -0.007745
    15  H   -0.193585   0.537697  -1.551197  -0.121167   0.059665   0.159984
    16  H    0.171543   0.041983   0.313575   0.015842   0.001449  -0.041541
    17  H    0.135918   0.118661  -0.196366  -0.015903   0.009853   0.051969
    18  C    0.871441   0.649451  -2.318227  -0.207590   0.594746  -0.497586
    19  C    1.011636   1.774259  -0.042417  -1.530531   2.092684  -0.907045
    20  H   -0.162455  -0.092031   0.199680   0.056166   0.012807  -0.084221
    21  H    0.412917  -1.297416   0.306710   0.286061   0.065259  -0.214402
    22  C  -11.653223  -2.882718   0.103563   2.138570  -1.694167   3.563905
    23  H    1.535396  -0.299647  -0.103115   0.742308   0.118728  -1.187377
    24  H    0.175451   0.196907  -0.441592  -1.493215   0.342722   0.661131
    25  C   19.220034  -0.604254  -2.202093  -1.040158  -0.269041  -2.958286
    26  H   -0.604254  10.780495  -4.659968  -1.451078  -0.298038   1.419939
    27  H   -2.202093  -4.659968  11.343441   2.240900  -1.503830  -1.627272
    28  H   -1.040158  -1.451078   2.240900   7.119894  -2.809199  -2.001251
    29  H   -0.269041  -0.298038  -1.503830  -2.809199   7.009470  -1.774426
    30  H   -2.958286   1.419939  -1.627272  -2.001251  -1.774426   6.650626
 Mulliken charges:
               1
     1  C    0.789502
     2  C    3.253850
     3  C    3.661507
     4  H   -0.707822
     5  H   -0.831864
     6  C   -0.115989
     7  H   -0.631457
     8  H   -0.688232
     9  N   -1.319584
    10  H   -1.487385
    11  H   -0.636160
    12  H   -0.869089
    13  H   -0.558885
    14  C    3.448818
    15  H   -0.834306
    16  H   -0.868206
    17  H   -0.681209
    18  C    0.715710
    19  C    2.681353
    20  H   -1.081057
    21  H   -1.220064
    22  C    0.027642
    23  H   -1.104012
    24  H   -0.898350
    25  C    4.870865
    26  H   -0.936771
    27  H   -0.867458
    28  H   -0.718086
    29  H   -0.594538
    30  H   -0.798721
 Sum of Mulliken charges =   1.00000
 Mulliken charges with hydrogens summed into heavy atoms:
               1
     1  C   -0.638473
     2  C    1.714164
     3  C    2.341818
     6  C   -2.239533
     9  N   -1.319584
    14  C    1.065097
    18  C   -1.585412
    19  C    0.678991
    22  C   -1.776587
    25  C    2.759519
 Electronic spatial extent (au):  <R**2>=           1932.6726
 Charge=              1.0000 electrons
 Dipole moment (field-independent basis, Debye):
    X=              3.0379    Y=             -1.1594    Z=              0.3909  Tot=              3.2750
 Quadrupole moment (field-independent basis, Debye-Ang):
   XX=            -44.6358   YY=            -55.0387   ZZ=            -56.5787
   XY=              0.0935   XZ=              0.5677   YZ=             -0.5024
 Traceless Quadrupole moment (field-independent basis, Debye-Ang):
   XX=              7.4486   YY=             -2.9543   ZZ=             -4.4943
   XY=              0.0935   XZ=              0.5677   YZ=             -0.5024
 Octapole moment (field-independent basis, Debye-Ang**2):
  XXX=             20.5513  YYY=             -3.0413  ZZZ=              3.7024  XYY=              8.6660
  XXY=              4.0540  XXZ=             -3.3860  XZZ=              5.2703  YZZ=             -5.0726
  YYZ=              1.4578  XYZ=             -1.2824
 Hexadecapole moment (field-independent basis, Debye-Ang**3):
 XXXX=          -1680.1424 YYYY=           -413.1779 ZZZZ=           -284.2867 XXXY=             -6.5281
 XXXZ=             -3.6554 YYYX=              4.1884 YYYZ=             -2.2172 ZZZX=              5.0429
 ZZZY=             -4.2282 XXYY=           -358.9296 XXZZ=           -343.7711 YYZZ=           -114.7606
 XXYZ=              1.4673 YYXZ=              0.3991 ZZXY=              1.1253
 N-N= 6.048043466459D+02 E-N=-2.142988739163D+03  KE= 4.068482816907D+02
  Exact polarizability: 124.501   0.818 100.883  -1.482   0.690  94.786
 Approx polarizability: 128.336   0.669 124.989  -0.458   0.410 123.297
 No NMR shielding tensors so no spin-rotation constants.
 Leave Link  601 at Mon Oct 31 15:30:46 2022, MaxMem=  8589934592 cpu:               4.5 elap:               0.3
 (Enter /usr/local/gaussian/g16a03/g16/l9999.exe)

 ----------------------------------------------------------------------

 Electric dipole moment (input orientation):
 (Debye = 10**-18 statcoulomb cm , SI units = C m)
                  (au)            (Debye)         (10**-30 SI)
   Tot        0.128850D+01      0.327504D+01      0.109243D+02
   x         -0.622280D+00     -0.158168D+01     -0.527591D+01
   y          0.973867D+00      0.247532D+01      0.825679D+01
   z          0.569717D+00      0.144808D+01      0.483026D+01

 Dipole polarizability, Alpha (input orientation).
 (esu units = cm**3 , SI units = C**2 m**2 J**-1)
 Alpha(0;0):
               (au)            (10**-24 esu)      (10**-40 SI)
   iso        0.106723D+03      0.158148D+02      0.175963D+02
   aniso      0.273678D+02      0.405549D+01      0.451234D+01
   xx         0.101942D+03      0.151062D+02      0.168079D+02
   yx        -0.687966D+01     -0.101946D+01     -0.113430D+01
   yy         0.103639D+03      0.153577D+02      0.170877D+02
   zx        -0.520129D+01     -0.770751D+00     -0.857576D+00
   zy         0.113205D+02      0.167753D+01      0.186650D+01
   zz         0.114590D+03      0.169804D+02      0.188933D+02

 First dipole hyperpolarizability, Beta (input orientation).
 ||, _|_  parallel and perpendicular components, (z) with respect to z axis,
 vector components x,y,z.  Values do not include the 1/n! factor of 1/2.
 (esu units = statvolt**-1 cm**4 , SI units = C**3 m**3 J**-2)
 Beta(0;0,0):
               (au)            (10**-30 esu)      (10**-50 SI)
   || (z)    -0.404439D+01     -0.349404D-01     -0.129678D-01
   _|_(z)    -0.134813D+01     -0.116468D-01     -0.432260D-02
   x         -0.109599D+03     -0.946851D+00     -0.351414D+00
   y          0.453509D+02      0.391797D+00      0.145411D+00
   z         -0.202220D+02     -0.174702D+00     -0.648389D-01
   ||         0.240646D+02      0.207899D+00      0.771597D-01
   xxx       -0.126309D+02     -0.109121D+00     -0.404991D-01
   xxy        0.300881D+01      0.259938D-01      0.964734D-02
   yxy       -0.120678D+02     -0.104256D+00     -0.386936D-01
   yyy        0.484179D+01      0.418293D-01      0.155245D-01
   xxz       -0.478039D+01     -0.412988D-01     -0.153276D-01
   yxz       -0.104565D+02     -0.903362D-01     -0.335274D-01
   yyz        0.567603D+01      0.490365D-01      0.181994D-01
   zxz       -0.118344D+02     -0.102240D+00     -0.379454D-01
   zyz        0.726637D+01      0.627758D-01      0.232986D-01
   zzz       -0.763630D+01     -0.659717D-01     -0.244847D-01

 ----------------------------------------------------------------------

 Dipole orientation:
     6         -7.29953351         -2.46104114         -6.04364756
     6         -5.36641015         -4.56223443         -5.76971320
     6         -3.05414949         -3.46502867         -7.08631386
     1         -6.00083087         -6.27383280         -6.72486478
     1         -5.04575235         -5.02152771         -3.79435666
     6         -4.20397584         -2.27333455         -9.42230645
     1         -1.65003475         -4.87663480         -7.58858528
     1         -2.13242509         -2.04994696         -5.90460347
     7         -6.70639636         -1.14343584         -8.55595096
     1         -4.63249133         -3.69991351        -10.83470420
     1         -3.07229046         -0.80115103        -10.28967252
     1         -7.09038479         -1.05696447         -4.55973608
     1         -9.24817577         -3.09710390         -6.07537240
     6         -6.41300219          1.62229584         -8.12628930
     1         -5.93398979          2.54378985         -9.89404849
     1         -4.90695168          1.92141191         -6.76309291
     1         -8.17744377          2.37764028         -7.39314820
     6         -8.84441441         -1.65212524        -10.39372679
     6         -8.79933539         -0.28348851        -12.91878493
     1        -10.55873116         -1.12125155         -9.38731153
     1         -8.86713119         -3.69479637        -10.65769115
     6         -6.65445656         -0.86467779        -14.75733258
     1         -8.95768776          1.75322023        -12.63212437
     1        -10.58094154         -0.83228666        -13.80839254
     6         -7.16450506          0.26390926        -17.35623747
     1         -6.41965172         -2.91029596        -14.92621361
     1         -4.86623652         -0.11914278        -14.04848202
     1         -8.88657491         -0.51570874        -18.17504498
     1         -5.61448994         -0.13170135        -18.64827765
     1         -7.38738184          2.30973084        -17.24546878

 Electric dipole moment (dipole orientation):
 (Debye = 10**-18 statcoulomb cm , SI units = C m)
                  (au)            (Debye)         (10**-30 SI)
   Tot        0.128850D+01      0.327504D+01      0.109243D+02
   x          0.000000D+00      0.000000D+00      0.000000D+00
   y          0.000000D+00      0.000000D+00      0.000000D+00
   z          0.128850D+01      0.327504D+01      0.109243D+02

 Dipole polarizability, Alpha (dipole orientation).
 (esu units = cm**3 , SI units = C**2 m**2 J**-1)
 Alpha(0;0):
               (au)            (10**-24 esu)      (10**-40 SI)
   iso        0.106723D+03      0.158148D+02      0.175963D+02
   aniso      0.273678D+02      0.405549D+01      0.451234D+01
   xx         0.100637D+03      0.149129D+02      0.165928D+02
   yx        -0.448514D+01     -0.664630D+00     -0.739500D+00
   yy         0.993388D+02      0.147205D+02      0.163788D+02
   zx         0.419217D+01      0.621215D+00      0.691195D+00
   zy        -0.868668D+01     -0.128723D+01     -0.143224D+01
   zz         0.120194D+03      0.178109D+02      0.198173D+02

 First dipole hyperpolarizability, Beta (dipole orientation).
 ||, _|_  parallel and perpendicular components, (z) with respect to z axis,
 vector components x,y,z.  Values do not include the 1/n! factor of 1/2.
 (esu units = statvolt**-1 cm**4 , SI units = C**3 m**3 J**-2)
 Beta(0;0,0):
               (au)            (10**-30 esu)      (10**-50 SI)
   || (z)     0.156533D+02      0.135232D+00      0.501902D-01
   _|_(z)     0.521777D+01      0.450775D-01      0.167301D-01
   x         -0.901611D+02     -0.778921D+00     -0.289089D+00
   y          0.149305D+02      0.128988D+00      0.478725D-01
   z          0.782665D+02      0.676162D+00      0.250951D+00
   ||         0.240646D+02      0.207899D+00      0.771597D-01
   xxx       -0.249841D+02     -0.215844D+00     -0.801082D-01
   xxy        0.353953D+01      0.305788D-01      0.113490D-01
   yxy       -0.323050D+01     -0.279090D-01     -0.103581D-01
   yyy        0.680174D+01      0.587617D-01      0.218088D-01
   xxz       -0.515236D+01     -0.445124D-01     -0.165203D-01
   yxz       -0.156735D+01     -0.135407D-01     -0.502549D-02
   yyz       -0.271247D+01     -0.234336D-01     -0.869716D-02
   zxz       -0.183905D+01     -0.158880D-01     -0.589666D-02
   zyz       -0.536444D+01     -0.463446D-01     -0.172003D-01
   zzz        0.339537D+02      0.293333D+00      0.108868D+00

 ----------------------------------------------------------------------
 1\1\GINC-MD08\SP\RM062X\Gen\C9H20N1(1+)\SOPHIEC\31-Oct-2022\0\\#P M062
 X/Gen field=X-8 int=(grid=ultrafine) polar=Dipole\\c4mpyr_eGeom\\1,1\C
 ,0,-2.0231,-4.18137,-2.29528\C,0,-1.51702,-4.48435,-0.89675\C,0,-0.007
 88,-4.35061,-1.05271\H,0,-1.78359,-5.49831,-0.5978\H,0,-1.94113,-3.798
 11,-0.16891\C,0,0.23868,-5.0581,-2.36977\H,0,0.55427,-4.81453,-0.2468\
 H,0,0.28852,-3.30231,-1.10663\N,0,-0.94145,-4.68569,-3.25851\H,0,0.218
 48,-6.13628,-2.23918\H,0,1.15954,-4.78298,-2.87231\H,0,-2.1215,-3.1111
 6,-2.4562\H,0,-2.96459,-4.65832,-2.54631\C,0,-0.55067,-3.59072,-4.1891
 8\H,0,0.23702,-3.93912,-4.84894\H,0,-0.19092,-2.74819,-3.60496\H,0,-1.
 41956,-3.29244,-4.77068\C,0,-1.48832,-5.86965,-4.03146\C,0,-0.63969,-6
 .43617,-5.15815\H,0,-2.43488,-5.52709,-4.44643\H,0,-1.70453,-6.63103,-
 3.28204\C,0,0.70379,-7.06996,-4.80772\H,0,-0.5104,-5.69187,-5.94615\H,
 0,-1.27615,-7.20598,-5.60212\C,0,1.29289,-7.81708,-5.99755\H,0,0.57712
 ,-7.75976,-3.96906\H,0,1.41573,-6.30869,-4.48304\H,0,0.63383,-8.62436,
 -6.31742\H,0,2.25768,-8.25266,-5.7455\H,0,1.43973,-7.14886,-6.84684\\V
 ersion=ES64L-G16RevA.03\State=1-A\HF=-409.4042381\RMSD=5.227e-09\Dipol
 e=-0.6222804,0.9738674,0.5697171\Polar=101.941611,-6.8796589,103.63890
 4,-5.2012859,11.320527,114.5895943\HyperPolar=-12.6308622,3.008812,-12
 .0677616,4.8417861,-4.7803856,-10.4565187,5.6760313,-11.8344018,7.2663
 708,-7.6363027\Quadrupole=-2.3299258,0.3252029,2.004723,-2.0263798,-1.
 5172848,3.5307307\PG=C01 [X(C9H20N1)]\\@


 IT MATTERS NOT HOW DEEP YOU PLOW,
 BUT HOW LONG YOU STAY IN THE FURROW.
 Job cpu time:       0 days  2 hours 21 minutes 50.6 seconds.
 Elapsed time:       0 days  0 hours  8 minutes 53.7 seconds.
 File lengths (MBytes):  RWF=     94 Int=      0 D2E=      0 Chk=     13 Scr=      1
 Normal termination of Gaussian 16 at Mon Oct 31 15:30:46 2022.
Done.
Output directory in: /monfs01/projects/sn29/sophiec/md/polarisabilities/c4mpyr/minusX/g16.10108896
