No checkpoint file specified...
total 0
 Entering Gaussian System, Link 0=g16
 Initial command:
 /usr/local/gaussian/g16a03/g16/l1.exe "/tmp/p2015120004.sophiec/g16.10108898/scratch/Gau-12019.inp" -scrdir="/tmp/p2015120004.sophiec/g16.10108898/scratch/"
 Entering Link 1 = /usr/local/gaussian/g16a03/g16/l1.exe PID=     12023.
  
 Copyright (c) 1988,1990,1992,1993,1995,1998,2003,2009,2016,
            Gaussian, Inc.  All Rights Reserved.
  
 This is part of the Gaussian(R) 16 program.  It is based on
 the Gaussian(R) 09 system (copyright 2009, Gaussian, Inc.),
 the Gaussian(R) 03 system (copyright 2003, Gaussian, Inc.),
 the Gaussian(R) 98 system (copyright 1998, Gaussian, Inc.),
 the Gaussian(R) 94 system (copyright 1995, Gaussian, Inc.),
 the Gaussian 92(TM) system (copyright 1992, Gaussian, Inc.),
 the Gaussian 90(TM) system (copyright 1990, Gaussian, Inc.),
 the Gaussian 88(TM) system (copyright 1988, Gaussian, Inc.),
 the Gaussian 86(TM) system (copyright 1986, Carnegie Mellon
 University), and the Gaussian 82(TM) system (copyright 1983,
 Carnegie Mellon University). Gaussian is a federally registered
 trademark of Gaussian, Inc.
  
 This software contains proprietary and confidential information,
 including trade secrets, belonging to Gaussian, Inc.
  
 This software is provided under written license and may be
 used, copied, transmitted, or stored only in accord with that
 written license.
  
 The following legend is applicable only to US Government
 contracts under FAR:
  
                    RESTRICTED RIGHTS LEGEND
  
 Use, reproduction and disclosure by the US Government is
 subject to restrictions as set forth in subparagraphs (a)
 and (c) of the Commercial Computer Software - Restricted
 Rights clause in FAR 52.227-19.
  
 Gaussian, Inc.
 340 Quinnipiac St., Bldg. 40, Wallingford CT 06492
  
  
 ---------------------------------------------------------------
 Warning -- This program may not be used in any manner that
 competes with the business of Gaussian, Inc. or will provide
 assistance to any competitor of Gaussian, Inc.  The licensee
 of this program is prohibited from giving any competitor of
 Gaussian, Inc. access to this program.  By using this program,
 the user acknowledges that Gaussian, Inc. is engaged in the
 business of creating and licensing software in the field of
 computational chemistry and represents and warrants to the
 licensee that it is not a competitor of Gaussian, Inc. and that
 it will not use this program in any manner prohibited above.
 ---------------------------------------------------------------
  

 Cite this work as:
 Gaussian 16, Revision A.03,
 M. J. Frisch, G. W. Trucks, H. B. Schlegel, G. E. Scuseria, 
 M. A. Robb, J. R. Cheeseman, G. Scalmani, V. Barone, 
 G. A. Petersson, H. Nakatsuji, X. Li, M. Caricato, A. V. Marenich, 
 J. Bloino, B. G. Janesko, R. Gomperts, B. Mennucci, H. P. Hratchian, 
 J. V. Ortiz, A. F. Izmaylov, J. L. Sonnenberg, D. Williams-Young, 
 F. Ding, F. Lipparini, F. Egidi, J. Goings, B. Peng, A. Petrone, 
 T. Henderson, D. Ranasinghe, V. G. Zakrzewski, J. Gao, N. Rega, 
 G. Zheng, W. Liang, M. Hada, M. Ehara, K. Toyota, R. Fukuda, 
 J. Hasegawa, M. Ishida, T. Nakajima, Y. Honda, O. Kitao, H. Nakai, 
 T. Vreven, K. Throssell, J. A. Montgomery, Jr., J. E. Peralta, 
 F. Ogliaro, M. J. Bearpark, J. J. Heyd, E. N. Brothers, K. N. Kudin, 
 V. N. Staroverov, T. A. Keith, R. Kobayashi, J. Normand, 
 K. Raghavachari, A. P. Rendell, J. C. Burant, S. S. Iyengar, 
 J. Tomasi, M. Cossi, J. M. Millam, M. Klene, C. Adamo, R. Cammi, 
 J. W. Ochterski, R. L. Martin, K. Morokuma, O. Farkas, 
 J. B. Foresman, and D. J. Fox, Gaussian, Inc., Wallingford CT, 2016.
 
 ******************************************
 Gaussian 16:  ES64L-G16RevA.03 25-Dec-2016
                31-Oct-2022 
 ******************************************
 %chk=spec.chk
 %mem=64gb
 %nproc=16
 Will use up to   16 processors via shared memory.
 --------------------------------------------------------
 #P M062X/Gen field=Z-8 int=(grid=ultrafine) polar=Dipole
 --------------------------------------------------------
 1/38=1,172=1/1;
 2/12=2,17=6,18=5,40=1/2;
 3/5=7,11=2,14=3,15=-8,25=1,30=1,74=-55,75=-5/1,2,3;
 4//1;
 5/5=2,38=5,98=1/2;
 8/6=4,10=90,11=11/1;
 10/6=1,13=10,17=1/2;
 6/7=2,8=2,9=2,10=2,28=1/1;
 99/5=1,9=1/99;
 Leave Link    1 at Mon Oct 31 15:21:52 2022, MaxMem=  8589934592 cpu:               1.5 elap:               0.1
 (Enter /usr/local/gaussian/g16a03/g16/l101.exe)
 ------------
 c4mpyr_eGeom
 ------------
 Symbolic Z-matrix:
 Charge =  1 Multiplicity = 1
 C                    -2.0231   -4.18137  -2.29528 
 C                    -1.51702  -4.48435  -0.89675 
 C                    -0.00788  -4.35061  -1.05271 
 H                    -1.78359  -5.49831  -0.5978 
 H                    -1.94113  -3.79811  -0.16891 
 C                     0.23868  -5.0581   -2.36977 
 H                     0.55427  -4.81453  -0.2468 
 H                     0.28852  -3.30231  -1.10663 
 N                    -0.94145  -4.68569  -3.25851 
 H                     0.21848  -6.13628  -2.23918 
 H                     1.15954  -4.78298  -2.87231 
 H                    -2.1215   -3.11116  -2.4562 
 H                    -2.96459  -4.65832  -2.54631 
 C                    -0.55067  -3.59072  -4.18918 
 H                     0.23702  -3.93912  -4.84894 
 H                    -0.19092  -2.74819  -3.60496 
 H                    -1.41956  -3.29244  -4.77068 
 C                    -1.48832  -5.86965  -4.03146 
 C                    -0.63969  -6.43617  -5.15815 
 H                    -2.43488  -5.52709  -4.44643 
 H                    -1.70453  -6.63103  -3.28204 
 C                     0.70379  -7.06996  -4.80772 
 H                    -0.5104   -5.69187  -5.94615 
 H                    -1.27615  -7.20598  -5.60212 
 C                     1.29289  -7.81708  -5.99755 
 H                     0.57712  -7.75976  -3.96906 
 H                     1.41573  -6.30869  -4.48304 
 H                     0.63383  -8.62436  -6.31742 
 H                     2.25768  -8.25266  -5.7455 
 H                     1.43973  -7.14886  -6.84684 
 
 ITRead=  0  0  0  0  0  0  0  0  0  0  0  0  0  0  0  0  0  0  0  0
 ITRead=  0  0  0  0  0  0  0  0  0  0
 MicOpt= -1 -1 -1 -1 -1 -1 -1 -1 -1 -1 -1 -1 -1 -1 -1 -1 -1 -1 -1 -1
 MicOpt= -1 -1 -1 -1 -1 -1 -1 -1 -1 -1
 NAtoms=     30 NQM=       30 NQMF=       0 NMMI=      0 NMMIF=      0
                NMic=       0 NMicF=      0.
                    Isotopes and Nuclear Properties:
 (Nuclear quadrupole moments (NQMom) in fm**2, nuclear magnetic moments (NMagM)
  in nuclear magnetons)

  Atom         1           2           3           4           5           6           7           8           9          10
 IAtWgt=          12          12          12           1           1          12           1           1          14           1
 AtmWgt=  12.0000000  12.0000000  12.0000000   1.0078250   1.0078250  12.0000000   1.0078250   1.0078250  14.0030740   1.0078250
 NucSpn=           0           0           0           1           1           0           1           1           2           1
 AtZEff=  -0.0000000  -0.0000000  -0.0000000  -0.0000000  -0.0000000  -0.0000000  -0.0000000  -0.0000000  -0.0000000  -0.0000000
 NQMom=    0.0000000   0.0000000   0.0000000   0.0000000   0.0000000   0.0000000   0.0000000   0.0000000   2.0440000   0.0000000
 NMagM=    0.0000000   0.0000000   0.0000000   2.7928460   2.7928460   0.0000000   2.7928460   2.7928460   0.4037610   2.7928460
 AtZNuc=   6.0000000   6.0000000   6.0000000   1.0000000   1.0000000   6.0000000   1.0000000   1.0000000   7.0000000   1.0000000

  Atom        11          12          13          14          15          16          17          18          19          20
 IAtWgt=           1           1           1          12           1           1           1          12          12           1
 AtmWgt=   1.0078250   1.0078250   1.0078250  12.0000000   1.0078250   1.0078250   1.0078250  12.0000000  12.0000000   1.0078250
 NucSpn=           1           1           1           0           1           1           1           0           0           1
 AtZEff=  -0.0000000  -0.0000000  -0.0000000  -0.0000000  -0.0000000  -0.0000000  -0.0000000  -0.0000000  -0.0000000  -0.0000000
 NQMom=    0.0000000   0.0000000   0.0000000   0.0000000   0.0000000   0.0000000   0.0000000   0.0000000   0.0000000   0.0000000
 NMagM=    2.7928460   2.7928460   2.7928460   0.0000000   2.7928460   2.7928460   2.7928460   0.0000000   0.0000000   2.7928460
 AtZNuc=   1.0000000   1.0000000   1.0000000   6.0000000   1.0000000   1.0000000   1.0000000   6.0000000   6.0000000   1.0000000

  Atom        21          22          23          24          25          26          27          28          29          30
 IAtWgt=           1          12           1           1          12           1           1           1           1           1
 AtmWgt=   1.0078250  12.0000000   1.0078250   1.0078250  12.0000000   1.0078250   1.0078250   1.0078250   1.0078250   1.0078250
 NucSpn=           1           0           1           1           0           1           1           1           1           1
 AtZEff=  -0.0000000  -0.0000000  -0.0000000  -0.0000000  -0.0000000  -0.0000000  -0.0000000  -0.0000000  -0.0000000  -0.0000000
 NQMom=    0.0000000   0.0000000   0.0000000   0.0000000   0.0000000   0.0000000   0.0000000   0.0000000   0.0000000   0.0000000
 NMagM=    2.7928460   0.0000000   2.7928460   2.7928460   0.0000000   2.7928460   2.7928460   2.7928460   2.7928460   2.7928460
 AtZNuc=   1.0000000   6.0000000   1.0000000   1.0000000   6.0000000   1.0000000   1.0000000   1.0000000   1.0000000   1.0000000
 Leave Link  101 at Mon Oct 31 15:21:52 2022, MaxMem=  8589934592 cpu:               1.9 elap:               0.1
 (Enter /usr/local/gaussian/g16a03/g16/l202.exe)
                          Input orientation:                          
 ---------------------------------------------------------------------
 Center     Atomic      Atomic             Coordinates (Angstroms)
 Number     Number       Type             X           Y           Z
 ---------------------------------------------------------------------
      1          6           0       -2.023100   -4.181370   -2.295280
      2          6           0       -1.517020   -4.484350   -0.896750
      3          6           0       -0.007880   -4.350610   -1.052710
      4          1           0       -1.783590   -5.498310   -0.597800
      5          1           0       -1.941130   -3.798110   -0.168910
      6          6           0        0.238680   -5.058100   -2.369770
      7          1           0        0.554270   -4.814530   -0.246800
      8          1           0        0.288520   -3.302310   -1.106630
      9          7           0       -0.941450   -4.685690   -3.258510
     10          1           0        0.218480   -6.136280   -2.239180
     11          1           0        1.159540   -4.782980   -2.872310
     12          1           0       -2.121500   -3.111160   -2.456200
     13          1           0       -2.964590   -4.658320   -2.546310
     14          6           0       -0.550670   -3.590720   -4.189180
     15          1           0        0.237020   -3.939120   -4.848940
     16          1           0       -0.190920   -2.748190   -3.604960
     17          1           0       -1.419560   -3.292440   -4.770680
     18          6           0       -1.488320   -5.869650   -4.031460
     19          6           0       -0.639690   -6.436170   -5.158150
     20          1           0       -2.434880   -5.527090   -4.446430
     21          1           0       -1.704530   -6.631030   -3.282040
     22          6           0        0.703790   -7.069960   -4.807720
     23          1           0       -0.510400   -5.691870   -5.946150
     24          1           0       -1.276150   -7.205980   -5.602120
     25          6           0        1.292890   -7.817080   -5.997550
     26          1           0        0.577120   -7.759760   -3.969060
     27          1           0        1.415730   -6.308690   -4.483040
     28          1           0        0.633830   -8.624360   -6.317420
     29          1           0        2.257680   -8.252660   -5.745500
     30          1           0        1.439730   -7.148860   -6.846840
 ---------------------------------------------------------------------
                    Distance matrix (angstroms):
                    1          2          3          4          5
     1  C    0.000000
     2  C    1.517827   0.000000
     3  C    2.373549   1.523061   0.000000
     4  H    2.161743   1.090204   2.162708   0.000000
     5  H    2.162188   1.086529   2.196318   1.760524   0.000000
     6  C    2.426902   2.362511   1.515249   2.724562   3.344089
     7  H    3.352611   2.195836   1.086612   2.460964   2.695589
     8  H    2.743943   2.168235   1.090731   3.061856   2.469104
     9  N    1.533661   2.439207   2.418550   2.906704   3.366420
    10  H    2.974811   2.746443   2.155822   2.666349   3.796969
    11  H    3.289999   3.340058   2.204713   3.787758   4.229952
    12  H    1.086705   2.164008   2.823723   3.044063   2.395022
    13  H    1.084851   2.201539   3.326809   2.428381   2.727538
    14  C    2.470582   3.545772   3.272537   4.249353   4.258986
    15  H    3.418773   4.358181   3.826312   4.958440   5.164001
    16  H    2.669485   3.479539   3.019145   4.375245   3.996499
    17  H    2.698530   4.054316   4.115321   4.734058   4.658758
    18  C    2.480040   3.427286   3.656793   3.466280   4.406314
    19  C    3.897944   4.768526   4.647944   4.794255   5.791858
    20  H    2.570597   3.811824   4.334947   3.903455   4.640080
    21  H    2.660078   3.214499   3.612319   2.914524   4.215803
    22  C    4.700238   5.187780   4.690569   5.136202   6.262520
    23  H    4.230688   5.288462   5.098751   5.501211   6.245784
    24  H    4.543280   5.441121   5.518947   5.311954   6.447910
    25  C    6.158001   6.709757   6.177367   6.633153   7.783576
    26  H    4.729435   4.955080   4.524337   4.696009   6.039652
    27  H    4.597536   4.979028   4.198560   5.097789   6.015251
    28  H    6.555688   7.151888   6.811307   6.951990   8.229659
    29  H    6.841381   7.208252   6.510072   7.100502   8.280784
    30  H    6.443127   7.158600   6.595280   7.222507   8.200761
                    6          7          8          9         10
     6  C    0.000000
     7  H    2.160075   0.000000
     8  H    2.163517   1.759756   0.000000
     9  N    1.523566   3.365141   2.838513   0.000000
    10  H    1.086248   2.414406   3.052697   2.118651   0.000000
    11  H    1.084537   2.694559   2.463470   2.138405   1.765749
    12  H    3.060800   3.865574   2.768768   2.124939   3.830660
    13  H    3.232944   4.206486   3.807120   2.145011   3.522872
    14  C    2.467089   4.273285   3.207730   1.489233   3.297570
    15  H    2.720001   4.695390   3.796454   2.115568   3.411554
    16  H    2.654418   4.012768   2.603568   2.106473   3.675883
    17  H    3.410525   5.165100   4.042635   2.111017   4.144767
    18  C    2.530288   4.428217   4.278204   1.516008   2.489282
    19  C    3.231977   5.308165   5.205523   2.600744   3.057250
    20  H    3.417659   5.203811   4.849827   2.085531   3.504766
    21  H    2.661280   4.196967   4.448037   2.089783   2.242833
    22  C    3.194919   5.090316   5.297707   3.285059   2.775731
    23  H    3.708541   5.863944   5.456118   2.902001   3.803997
    24  H    4.166075   6.144015   6.155994   3.457802   3.832433
    25  C    4.678046   6.529318   6.731494   4.722311   4.254972
    26  H    3.157727   4.746591   5.305248   3.501549   2.399332
    27  H    2.723111   4.573878   4.659299   3.112860   2.549125
    28  H    5.334632   7.167535   7.456258   5.229872   4.795321
    29  H    5.067260   6.705076   7.064182   5.398410   4.575115
    30  H    5.085072   7.056463   7.005087   4.961183   4.873120
                   11         12         13         14         15
    11  H    0.000000
    12  H    3.705854   0.000000
    13  H    4.138872   1.764263   0.000000
    14  C    2.465857   2.387615   3.108987   0.000000
    15  H    2.338848   3.460251   4.008698   1.084952   0.000000
    16  H    2.549684   2.275640   3.530238   1.086550   1.774523
    17  H    3.532319   2.425366   3.033244   1.087236   1.780050
    18  C    3.087984   3.239078   2.419166   2.469329   2.715146
    19  C    3.345942   4.533430   3.922706   3.007227   2.664487
    20  H    3.993921   3.145781   2.155414   2.714029   3.134121
    21  H    3.433084   3.639418   2.453698   3.376060   3.670309
    22  C    3.030478   5.402222   4.938319   3.749850   3.165712
    23  H    3.614315   4.629844   4.318586   2.739233   2.198781
    24  H    4.388095   5.232493   4.321964   3.948775   3.678225
    25  C    4.357829   6.807709   6.325738   4.952881   4.180041
    26  H    3.225414   5.583975   4.918014   4.324495   3.935371
    27  H    2.233355   5.181146   5.065752   3.367558   2.671723
    28  H    5.186652   7.272980   6.549761   5.591956   4.925989
    29  H    4.636789   7.512106   7.101141   5.660622   4.847011
    30  H    4.633873   6.947165   6.640435   4.866745   3.967436
                   16         17         18         19         20
    16  H    0.000000
    17  H    1.778951   0.000000
    18  C    3.407149   2.682011   0.000000
    19  C    4.026784   3.262111   1.520049   0.000000
    20  H    3.669566   2.475818   1.088817   2.134404   0.000000
    21  H    4.179921   3.666530   1.089989   2.166020   1.762923
    22  C    4.574367   4.333549   2.616996   1.526247   3.515996
    23  H    3.774717   2.822333   2.157306   1.091624   2.445391
    24  H    5.003825   4.003455   2.073106   1.093068   2.344557
    25  C    5.798261   5.416176   3.923407   2.519200   4.641799
    26  H    5.083138   4.958455   2.800438   2.155563   3.779529
    27  H    4.003687   4.149623   2.971563   2.167205   3.929305
    28  H    6.524341   5.919306   4.161437   2.784589   4.744541
    29  H    6.393492   6.251092   4.759116   3.469779   5.580003
    30  H    5.703920   5.230483   4.258664   2.771929   4.837841
                   21         22         23         24         25
    21  H    0.000000
    22  C    2.884504   0.000000
    23  H    3.066831   2.160882   0.000000
    24  H    2.428343   2.137694   1.731259   0.000000
    25  C    4.214883   1.523457   2.787654   2.670164   0.000000
    26  H    2.636656   1.093261   3.060679   2.531436   2.151833
    27  H    3.358917   1.091699   2.496224   3.050195   2.141044
    28  H    4.319123   2.168006   3.169637   2.484246   1.090127
    29  H    4.939375   2.166284   3.776264   3.688367   1.088154
    30  H    4.781456   2.169296   2.595587   2.988075   1.090584
                   26         27         28         29         30
    26  H    0.000000
    27  H    1.753011   0.000000
    28  H    2.503107   3.055920   0.000000
    29  H    2.494588   2.466111   1.761290   0.000000
    30  H    3.065765   2.508787   1.762629   1.760786   0.000000
 Stoichiometry    C9H20N(1+)
 Framework group  C1[X(C9H20N)]
 Deg. of freedom    84
 Full point group                 C1      NOp   1
 Largest Abelian subgroup         C1      NOp   1
 Largest concise Abelian subgroup C1      NOp   1
                         Standard orientation:                         
 ---------------------------------------------------------------------
 Center     Atomic      Atomic             Coordinates (Angstroms)
 Number     Number       Type             X           Y           Z
 ---------------------------------------------------------------------
      1          6           0        2.068148   -0.836663   -0.439403
      2          6           0        2.764771    0.478088   -0.739315
      3          6           0        2.224295    1.396812    0.348594
      4          1           0        2.488263    0.848413   -1.726709
      5          1           0        3.845029    0.364149   -0.714722
      6          6           0        0.752388    1.037353    0.364768
      7          1           0        2.368087    2.452612    0.135668
      8          1           0        2.693086    1.182873    1.309925
      9          7           0        0.699480   -0.469681    0.147274
     10          1           0        0.231460    1.503279   -0.466785
     11          1           0        0.231646    1.279626    1.284742
     12          1           0        2.601338   -1.401484    0.320605
     13          1           0        1.918126   -1.474004   -1.304384
     14          6           0        0.511614   -1.164642    1.450942
     15          1           0       -0.443141   -0.879203    1.879999
     16          1           0        1.314875   -0.871554    2.121361
     17          1           0        0.540819   -2.239135    1.287559
     18          6           0       -0.379821   -0.881614   -0.834408
     19          6           0       -1.828647   -0.754423   -0.392509
     20          1           0       -0.175222   -1.926590   -1.061755
     21          1           0       -0.191553   -0.297435   -1.735167
     22          6           0       -2.382049    0.639422   -0.109008
     23          1           0       -2.026607   -1.416786    0.452316
     24          1           0       -2.393385   -1.184638   -1.223644
     25          6           0       -3.896189    0.612867    0.057110
     26          1           0       -2.115685    1.313982   -0.927078
     27          1           0       -1.936118    1.053842    0.797198
     28          1           0       -4.382792    0.255715   -0.850656
     29          1           0       -4.281971    1.606786    0.274771
     30          1           0       -4.189676   -0.045886    0.875208
 ---------------------------------------------------------------------
 Rotational constants (GHZ):           2.4796908           0.7142451           0.6647787
 Leave Link  202 at Mon Oct 31 15:21:52 2022, MaxMem=  8589934592 cpu:               1.3 elap:               0.1
 (Enter /usr/local/gaussian/g16a03/g16/l301.exe)
 General basis read from cards:  (5D, 7F)
 Centers:       4      5      7      8     10     11     12     13     15     16
 Centers:      17     20     21     23     24     26     27     28     29     30
 S 4 1.00
     Exponent=  3.3685014000D+01 Coefficients=  6.0680000000D-03
     Exponent=  5.0947880000D+00 Coefficients=  4.5316000000D-02
     Exponent=  1.1587860000D+00 Coefficients=  2.0284600000D-01
     Exponent=  3.2584000000D-01 Coefficients=  5.0370900000D-01
 S 1 1.00
     Exponent=  1.0274100000D-01 Coefficients=  1.0000000000D+00
 S 1 1.00
     Exponent=  3.2400000000D-02 Coefficients=  1.0000000000D+00
 P 2 1.00
     Exponent=  1.1588000000D+00 Coefficients=  1.8844000000D-01
     Exponent=  3.2580000000D-01 Coefficients=  8.8242000000D-01
 P 2 1.00
     Exponent=  1.0270000000D-01 Coefficients=  1.1780000000D-01
     Exponent=  3.2400000000D-02 Coefficients=  4.2000000000D-03
 ****
 Centers:       1      2      3      6     14     18     19     22     25
 S 5 1.00
     Exponent=  5.2406353000D+03 Coefficients=  9.3700000000D-04
     Exponent=  7.8220480000D+02 Coefficients=  7.2280000000D-03
     Exponent=  1.7835083000D+02 Coefficients=  3.6344000000D-02
     Exponent=  5.0815942000D+01 Coefficients=  1.3060000000D-01
     Exponent=  1.6823562000D+01 Coefficients=  3.1893100000D-01
 S 2 1.00
     Exponent=  6.1757760000D+00 Coefficients=  4.3874200000D-01
     Exponent=  2.4180490000D+00 Coefficients=  2.1497400000D-01
 S 1 1.00
     Exponent=  5.1190000000D-01 Coefficients=  1.0000000000D+00
 S 1 1.00
     Exponent=  1.5659000000D-01 Coefficients=  1.0000000000D+00
 S 1 1.00
     Exponent=  4.7900000000D-02 Coefficients=  1.0000000000D+00
 P 4 1.00
     Exponent=  1.8841800000D+01 Coefficients=  1.3887000000D-02
     Exponent=  4.1592400000D+00 Coefficients=  8.6279000000D-02
     Exponent=  1.2067100000D+00 Coefficients=  2.8874400000D-01
     Exponent=  3.8554000000D-01 Coefficients=  4.9941100000D-01
 P 1 1.00
     Exponent=  1.2194000000D-01 Coefficients=  1.0000000000D+00
 P 1 1.00
     Exponent=  3.8568000000D-02 Coefficients=  1.0000000000D+00
 D 2 1.00
     Exponent=  1.2067100000D+00 Coefficients=  2.6285200000D-01
     Exponent=  3.8554000000D-01 Coefficients=  8.0430000000D-01
 D 2 1.00
     Exponent=  1.2194000000D-01 Coefficients=  6.5350000000D-01
     Exponent=  3.8658000000D-02 Coefficients=  8.6360000000D-01
 ****
 Centers:       9
 S 5 1.00
     Exponent=  8.1040716000D+03 Coefficients=  8.0200000000D-04
     Exponent=  1.2160215000D+03 Coefficients=  6.1740000000D-03
     Exponent=  2.7723428000D+02 Coefficients=  3.1233000000D-02
     Exponent=  7.6904023000D+01 Coefficients=  1.1519800000D-01
     Exponent=  2.5874419000D+01 Coefficients=  2.9695100000D-01
 S 2 1.00
     Exponent=  9.3467670000D+00 Coefficients=  4.4734900000D-01
     Exponent=  3.5797940000D+00 Coefficients=  2.4500300000D-01
 S 1 1.00
     Exponent=  7.3961000000D-01 Coefficients=  1.0000000000D+00
 S 1 1.00
     Exponent=  2.2261700000D-01 Coefficients=  1.0000000000D+00
 S 1 1.00
     Exponent=  6.7006000000D-02 Coefficients=  1.0000000000D+00
 P 4 1.00
     Exponent=  2.6868987000D+01 Coefficients=  1.4478000000D-02
     Exponent=  5.9912270000D+00 Coefficients=  9.1156000000D-02
     Exponent=  1.7508420000D+00 Coefficients=  2.9742000000D-01
     Exponent=  5.6051100000D-01 Coefficients=  4.9379600000D-01
 P 1 1.00
     Exponent=  1.7594800000D-01 Coefficients=  1.0000000000D+00
 P 1 1.00
     Exponent=  5.5231000000D-02 Coefficients=  1.0000000000D+00
 D 2 1.00
     Exponent=  1.7508420000D+00 Coefficients=  2.2477400000D-01
     Exponent=  5.6051100000D-01 Coefficients=  6.5956200000D-01
 D 2 1.00
     Exponent=  1.7594800000D-01 Coefficients=  8.7135500000D-01
     Exponent=  5.5231000000D-02 Coefficients=  7.0421700000D-01
 ****
 Ernie: Thresh=  0.10000D-02 Tol=  0.10000D-05 Strict=F.
 The following finite field(s) will be applied:
 An electric field of              0.0000  0.0000 -0.0008
 In input orientation: -5.01791368D-04 -5.80051955D-04  2.27475610D-04
 There are   440 symmetry adapted cartesian basis functions of A   symmetry.
 There are   420 symmetry adapted basis functions of A   symmetry.
   420 basis functions,   880 primitive gaussians,   440 cartesian basis functions
    40 alpha electrons       40 beta electrons
       nuclear repulsion energy       604.8043466459 Hartrees.
 IExCor= 4336 DFT=T Ex+Corr=M062X ExCW=0 ScaHFX=  0.540000
 ScaDFX=  1.000000  1.000000  1.000000  1.000000 ScalE2=  1.000000  1.000000
 IRadAn=      5 IRanWt=     -1 IRanGd=            0 ICorTp=0 IEmpDi=  4
 NAtoms=   30 NActive=   30 NUniq=   30 SFac= 1.00D+00 NAtFMM=   60 NAOKFM=F Big=F
 Integral buffers will be    131072 words long.
 Raffenetti 2 integral format.
 Two-electron integral symmetry is turned on.
 Leave Link  301 at Mon Oct 31 15:21:52 2022, MaxMem=  8589934592 cpu:               2.0 elap:               0.2
 (Enter /usr/local/gaussian/g16a03/g16/l302.exe)
 NPDir=0 NMtPBC=     1 NCelOv=     1 NCel=       1 NClECP=     1 NCelD=      1
         NCelK=      1 NCelE2=     1 NClLst=     1 CellRange=     0.0.
 One-electron integrals computed using PRISM.
 One-electron integral symmetry used in STVInt
 NBasis=   420 RedAO= T EigKep=  2.49D-06  NBF=   420
 NBsUse=   420 1.00D-06 EigRej= -1.00D+00 NBFU=   420
 Precomputing XC quadrature grid using
 IXCGrd= 4 IRadAn=           5 IRanWt=          -1 IRanGd=           0 AccXCQ= 0.00D+00.
 Generated NRdTot=       0 NPtTot=           0 NUsed=           0 NTot=          32
 NSgBfM=   438   438   438   438   438 MxSgAt=    30 MxSgA2=    30.
 Leave Link  302 at Mon Oct 31 15:21:53 2022, MaxMem=  8589934592 cpu:               6.6 elap:               0.4
 (Enter /usr/local/gaussian/g16a03/g16/l303.exe)
 DipDrv:  MaxL=1.
 The nuclear repulsion energy is now       604.8043466459 hartrees.
 Leave Link  303 at Mon Oct 31 15:21:53 2022, MaxMem=  8589934592 cpu:               2.0 elap:               0.2
 (Enter /usr/local/gaussian/g16a03/g16/l401.exe)
 ExpMin= 3.24D-02 ExpMax= 8.10D+03 ExpMxC= 1.22D+03 IAcc=3 IRadAn=         5 AccDes= 0.00D+00
 Harris functional with IExCor= 1009 and IRadAn=       5 diagonalized for initial guess.
 HarFok:  IExCor= 1009 AccDes= 0.00D+00 IRadAn=         5 IDoV= 1 UseB2=F ITyADJ=14
 ICtDFT=  3500011 ScaDFX=  1.000000  1.000000  1.000000  1.000000
 FoFCou: FMM=F IPFlag=           0 FMFlag=      100000 FMFlg1=           0
         NFxFlg=           0 DoJE=T BraDBF=F KetDBF=T FulRan=T
         wScrn=  0.000000 ICntrl=       500 IOpCl=  0 I1Cent=   200000004 NGrid=           0
         NMat0=    1 NMatS0=      1 NMatT0=    0 NMatD0=    1 NMtDS0=    0 NMtDT0=    0
 Petite list used in FoFCou.
 Harris En= -409.286718119001    
 JPrj=0 DoOrth=F DoCkMO=F.
 Leave Link  401 at Mon Oct 31 15:21:55 2022, MaxMem=  8589934592 cpu:              25.3 elap:               1.6
 (Enter /usr/local/gaussian/g16a03/g16/l502.exe)
 Integral symmetry usage will be decided dynamically.
 Closed shell SCF:
 Using DIIS extrapolation, IDIIS=  1040.
 NGot=  8589934592 LenX=  8589535990 LenY=  8589341949
 Requested convergence on RMS density matrix=1.00D-08 within 128 cycles.
 Requested convergence on MAX density matrix=1.00D-06.
 Requested convergence on             energy=1.00D-06.
 No special actions if energy rises.
 Fock matrices will be formed incrementally for  20 cycles.

 Cycle   1  Pass 1  IDiag  1:
 FoFJK:  IHMeth= 1 ICntrl=       0 DoSepK=F KAlg= 0 I1Cent=           0 FoldK=F
 IRaf= 990000000 NMat=       1 IRICut=       1 DoRegI=T DoRafI=F ISym2E= 0 IDoP0=0 IntGTp=1.
 FoFCou: FMM=F IPFlag=           0 FMFlag=      100000 FMFlg1=           0
         NFxFlg=           0 DoJE=F BraDBF=F KetDBF=F FulRan=T
         wScrn=  0.000000 ICntrl=         0 IOpCl=  0 I1Cent=           0 NGrid=           0
         NMat0=    1 NMatS0=      1 NMatT0=    0 NMatD0=    1 NMtDS0=    0 NMtDT0=    0
 Symmetry not used in FoFCou.
 E= -409.085467105170    
 DIIS: error= 1.69D-02 at cycle   1 NSaved=   1.
 NSaved= 1 IEnMin= 1 EnMin= -409.085467105170     IErMin= 1 ErrMin= 1.69D-02
 ErrMax= 1.69D-02  0.00D+00 EMaxC= 1.00D-01 BMatC= 3.48D-01 BMatP= 3.48D-01
 IDIUse=3 WtCom= 8.31D-01 WtEn= 1.69D-01
 Coeff-Com:  0.100D+01
 Coeff-En:   0.100D+01
 Coeff:      0.100D+01
 Gap=     0.403 Goal=   None    Shift=    0.000
 GapD=    0.403 DampG=2.000 DampE=0.500 DampFc=1.0000 IDamp=-1.
 RMSDP=8.49D-02 MaxDP=4.72D+00              OVMax= 1.48D-01

 Cycle   2  Pass 1  IDiag  1:
 RMSU=  2.47D-02    CP:  5.94D-01
 E= -409.154013505530     Delta-E=       -0.068546400360 Rises=F Damp=F
 DIIS: error= 1.37D-02 at cycle   2 NSaved=   2.
 NSaved= 2 IEnMin= 2 EnMin= -409.154013505530     IErMin= 2 ErrMin= 1.37D-02
 ErrMax= 1.37D-02  0.00D+00 EMaxC= 1.00D-01 BMatC= 2.68D-01 BMatP= 3.48D-01
 IDIUse=3 WtCom= 8.63D-01 WtEn= 1.37D-01
 Coeff-Com:  0.464D+00 0.536D+00
 Coeff-En:   0.432D+00 0.568D+00
 Coeff:      0.460D+00 0.540D+00
 Gap=     0.414 Goal=   None    Shift=    0.000
 RMSDP=2.53D-02 MaxDP=1.51D+00 DE=-6.85D-02 OVMax= 7.24D-02

 Cycle   3  Pass 1  IDiag  1:
 RMSU=  9.25D-03    CP:  7.07D-01  7.12D-01
 E= -409.396757438697     Delta-E=       -0.242743933167 Rises=F Damp=F
 DIIS: error= 3.58D-03 at cycle   3 NSaved=   3.
 NSaved= 3 IEnMin= 3 EnMin= -409.396757438697     IErMin= 3 ErrMin= 3.58D-03
 ErrMax= 3.58D-03  0.00D+00 EMaxC= 1.00D-01 BMatC= 8.17D-03 BMatP= 2.68D-01
 IDIUse=3 WtCom= 9.64D-01 WtEn= 3.58D-02
 Coeff-Com:  0.978D-01 0.185D+00 0.717D+00
 Coeff-En:   0.000D+00 0.000D+00 0.100D+01
 Coeff:      0.943D-01 0.178D+00 0.727D+00
 Gap=     0.397 Goal=   None    Shift=    0.000
 RMSDP=4.16D-03 MaxDP=3.84D-01 DE=-2.43D-01 OVMax= 1.87D-02

 Cycle   4  Pass 1  IDiag  1:
 RMSU=  2.21D-03    CP:  7.24D-01  7.44D-01  9.61D-01
 E= -409.402043272323     Delta-E=       -0.005285833626 Rises=F Damp=F
 DIIS: error= 1.24D-03 at cycle   4 NSaved=   4.
 NSaved= 4 IEnMin= 4 EnMin= -409.402043272323     IErMin= 4 ErrMin= 1.24D-03
 ErrMax= 1.24D-03  0.00D+00 EMaxC= 1.00D-01 BMatC= 1.63D-03 BMatP= 8.17D-03
 IDIUse=3 WtCom= 9.88D-01 WtEn= 1.24D-02
 Coeff-Com:  0.662D-02 0.379D-01 0.358D+00 0.598D+00
 Coeff-En:   0.000D+00 0.000D+00 0.127D+00 0.873D+00
 Coeff:      0.654D-02 0.375D-01 0.355D+00 0.601D+00
 Gap=     0.394 Goal=   None    Shift=    0.000
 RMSDP=1.11D-03 MaxDP=4.57D-02 DE=-5.29D-03 OVMax= 6.33D-03

 Cycle   5  Pass 1  IDiag  1:
 RMSU=  1.09D-03    CP:  7.24D-01  7.51D-01  9.65D-01  1.00D+00
 E= -409.403442133036     Delta-E=       -0.001398860713 Rises=F Damp=F
 DIIS: error= 1.65D-04 at cycle   5 NSaved=   5.
 NSaved= 5 IEnMin= 5 EnMin= -409.403442133036     IErMin= 5 ErrMin= 1.65D-04
 ErrMax= 1.65D-04  0.00D+00 EMaxC= 1.00D-01 BMatC= 3.42D-05 BMatP= 1.63D-03
 IDIUse=3 WtCom= 9.98D-01 WtEn= 1.65D-03
 Coeff-Com: -0.255D-02 0.232D-02 0.748D-01 0.197D+00 0.728D+00
 Coeff-En:   0.000D+00 0.000D+00 0.000D+00 0.000D+00 0.100D+01
 Coeff:     -0.254D-02 0.231D-02 0.747D-01 0.197D+00 0.729D+00
 Gap=     0.395 Goal=   None    Shift=    0.000
 RMSDP=2.53D-04 MaxDP=4.04D-02 DE=-1.40D-03 OVMax= 1.00D-03

 Cycle   6  Pass 1  IDiag  1:
 RMSU=  1.90D-04    CP:  7.24D-01  7.53D-01  9.75D-01  1.01D+00  9.45D-01
 E= -409.403473858919     Delta-E=       -0.000031725883 Rises=F Damp=F
 DIIS: error= 3.00D-05 at cycle   6 NSaved=   6.
 NSaved= 6 IEnMin= 6 EnMin= -409.403473858919     IErMin= 6 ErrMin= 3.00D-05
 ErrMax= 3.00D-05  0.00D+00 EMaxC= 1.00D-01 BMatC= 2.26D-06 BMatP= 3.42D-05
 IDIUse=1 WtCom= 1.00D+00 WtEn= 0.00D+00
 Coeff-Com: -0.121D-02-0.143D-02 0.755D-02 0.373D-01 0.251D+00 0.706D+00
 Coeff:     -0.121D-02-0.143D-02 0.755D-02 0.373D-01 0.251D+00 0.706D+00
 Gap=     0.395 Goal=   None    Shift=    0.000
 RMSDP=8.45D-05 MaxDP=3.68D-03 DE=-3.17D-05 OVMax= 2.52D-04

 Cycle   7  Pass 1  IDiag  1:
 RMSU=  7.72D-05    CP:  7.24D-01  7.53D-01  9.77D-01  1.02D+00  9.58D-01
                    CP:  9.50D-01
 E= -409.403475889849     Delta-E=       -0.000002030931 Rises=F Damp=F
 DIIS: error= 9.57D-06 at cycle   7 NSaved=   7.
 NSaved= 7 IEnMin= 7 EnMin= -409.403475889849     IErMin= 7 ErrMin= 9.57D-06
 ErrMax= 9.57D-06  0.00D+00 EMaxC= 1.00D-01 BMatC= 1.80D-07 BMatP= 2.26D-06
 IDIUse=1 WtCom= 1.00D+00 WtEn= 0.00D+00
 Coeff-Com: -0.302D-04-0.803D-03-0.653D-02-0.123D-01-0.667D-02 0.219D+00
 Coeff-Com:  0.807D+00
 Coeff:     -0.302D-04-0.803D-03-0.653D-02-0.123D-01-0.667D-02 0.219D+00
 Coeff:      0.807D+00
 Gap=     0.395 Goal=   None    Shift=    0.000
 RMSDP=3.68D-05 MaxDP=1.80D-03 DE=-2.03D-06 OVMax= 8.38D-05

 Cycle   8  Pass 1  IDiag  1:
 RMSU=  2.01D-05    CP:  7.24D-01  7.53D-01  9.77D-01  1.03D+00  9.80D-01
                    CP:  1.01D+00  1.04D+00
 E= -409.403476090661     Delta-E=       -0.000000200811 Rises=F Damp=F
 DIIS: error= 1.42D-06 at cycle   8 NSaved=   8.
 NSaved= 8 IEnMin= 8 EnMin= -409.403476090661     IErMin= 8 ErrMin= 1.42D-06
 ErrMax= 1.42D-06  0.00D+00 EMaxC= 1.00D-01 BMatC= 3.50D-09 BMatP= 1.80D-07
 IDIUse=1 WtCom= 1.00D+00 WtEn= 0.00D+00
 Coeff-Com:  0.266D-04-0.139D-03-0.158D-02-0.358D-02-0.911D-02 0.167D-01
 Coeff-Com:  0.148D+00 0.850D+00
 Coeff:      0.266D-04-0.139D-03-0.158D-02-0.358D-02-0.911D-02 0.167D-01
 Coeff:      0.148D+00 0.850D+00
 Gap=     0.395 Goal=   None    Shift=    0.000
 RMSDP=5.55D-06 MaxDP=2.64D-04 DE=-2.01D-07 OVMax= 1.48D-05

 Cycle   9  Pass 1  IDiag  1:
 RMSU=  3.98D-06    CP:  7.24D-01  7.53D-01  9.77D-01  1.03D+00  9.82D-01
                    CP:  1.01D+00  1.07D+00  1.01D+00
 E= -409.403476094553     Delta-E=       -0.000000003892 Rises=F Damp=F
 DIIS: error= 6.04D-07 at cycle   9 NSaved=   9.
 NSaved= 9 IEnMin= 9 EnMin= -409.403476094553     IErMin= 9 ErrMin= 6.04D-07
 ErrMax= 6.04D-07  0.00D+00 EMaxC= 1.00D-01 BMatC= 5.51D-10 BMatP= 3.50D-09
 IDIUse=1 WtCom= 1.00D+00 WtEn= 0.00D+00
 Coeff-Com:  0.994D-05 0.288D-05-0.111D-03-0.394D-03-0.266D-02-0.959D-02
 Coeff-Com: -0.633D-02 0.294D+00 0.725D+00
 Coeff:      0.994D-05 0.288D-05-0.111D-03-0.394D-03-0.266D-02-0.959D-02
 Coeff:     -0.633D-02 0.294D+00 0.725D+00
 Gap=     0.395 Goal=   None    Shift=    0.000
 RMSDP=1.53D-06 MaxDP=9.25D-05 DE=-3.89D-09 OVMax= 4.66D-06

 Cycle  10  Pass 1  IDiag  1:
 RMSU=  8.54D-07    CP:  7.24D-01  7.53D-01  9.77D-01  1.03D+00  9.82D-01
                    CP:  1.01D+00  1.08D+00  1.05D+00  9.05D-01
 E= -409.403476095088     Delta-E=       -0.000000000535 Rises=F Damp=F
 DIIS: error= 1.48D-07 at cycle  10 NSaved=  10.
 NSaved=10 IEnMin=10 EnMin= -409.403476095088     IErMin=10 ErrMin= 1.48D-07
 ErrMax= 1.48D-07  0.00D+00 EMaxC= 1.00D-01 BMatC= 4.38D-11 BMatP= 5.51D-10
 IDIUse=1 WtCom= 1.00D+00 WtEn= 0.00D+00
 Coeff-Com:  0.147D-05 0.106D-04 0.735D-04 0.121D-03-0.227D-03-0.446D-02
 Coeff-Com: -0.132D-01 0.426D-01 0.267D+00 0.708D+00
 Coeff:      0.147D-05 0.106D-04 0.735D-04 0.121D-03-0.227D-03-0.446D-02
 Coeff:     -0.132D-01 0.426D-01 0.267D+00 0.708D+00
 Gap=     0.395 Goal=   None    Shift=    0.000
 RMSDP=2.91D-07 MaxDP=1.21D-05 DE=-5.35D-10 OVMax= 1.30D-06

 Cycle  11  Pass 1  IDiag  1:
 RMSU=  2.36D-07    CP:  7.24D-01  7.53D-01  9.77D-01  1.03D+00  9.82D-01
                    CP:  1.01D+00  1.08D+00  1.05D+00  9.29D-01  8.95D-01
 E= -409.403476095109     Delta-E=       -0.000000000021 Rises=F Damp=F
 DIIS: error= 2.78D-08 at cycle  11 NSaved=  11.
 NSaved=11 IEnMin=11 EnMin= -409.403476095109     IErMin=11 ErrMin= 2.78D-08
 ErrMax= 2.78D-08  0.00D+00 EMaxC= 1.00D-01 BMatC= 1.10D-12 BMatP= 4.38D-11
 IDIUse=1 WtCom= 1.00D+00 WtEn= 0.00D+00
 Coeff-Com: -0.140D-07 0.253D-05 0.221D-04 0.433D-04 0.526D-04-0.650D-03
 Coeff-Com: -0.292D-02-0.181D-02 0.368D-01 0.177D+00 0.792D+00
 Coeff:     -0.140D-07 0.253D-05 0.221D-04 0.433D-04 0.526D-04-0.650D-03
 Coeff:     -0.292D-02-0.181D-02 0.368D-01 0.177D+00 0.792D+00
 Gap=     0.395 Goal=   None    Shift=    0.000
 RMSDP=6.98D-08 MaxDP=2.85D-06 DE=-2.14D-11 OVMax= 2.33D-07

 Cycle  12  Pass 1  IDiag  1:
 RMSU=  5.73D-08    CP:  7.24D-01  7.53D-01  9.77D-01  1.03D+00  9.82D-01
                    CP:  1.01D+00  1.08D+00  1.05D+00  9.30D-01  9.16D-01
                    CP:  1.01D+00
 E= -409.403476095145     Delta-E=       -0.000000000036 Rises=F Damp=F
 DIIS: error= 7.02D-09 at cycle  12 NSaved=  12.
 NSaved=12 IEnMin=12 EnMin= -409.403476095145     IErMin=12 ErrMin= 7.02D-09
 ErrMax= 7.02D-09  0.00D+00 EMaxC= 1.00D-01 BMatC= 1.05D-13 BMatP= 1.10D-12
 IDIUse=1 WtCom= 1.00D+00 WtEn= 0.00D+00
 Coeff-Com: -0.936D-07-0.273D-07 0.734D-06 0.266D-05 0.274D-04 0.139D-03
 Coeff-Com:  0.113D-03-0.360D-02-0.876D-02-0.269D-02 0.228D+00 0.787D+00
 Coeff:     -0.936D-07-0.273D-07 0.734D-06 0.266D-05 0.274D-04 0.139D-03
 Coeff:      0.113D-03-0.360D-02-0.876D-02-0.269D-02 0.228D+00 0.787D+00
 Gap=     0.395 Goal=   None    Shift=    0.000
 RMSDP=2.07D-08 MaxDP=1.13D-06 DE=-3.60D-11 OVMax= 7.11D-08

 Cycle  13  Pass 1  IDiag  1:
 RMSU=  1.54D-08    CP:  7.24D-01  7.53D-01  9.77D-01  1.03D+00  9.82D-01
                    CP:  1.01D+00  1.08D+00  1.05D+00  9.29D-01  9.22D-01
                    CP:  1.04D+00  9.37D-01
 E= -409.403476095159     Delta-E=       -0.000000000014 Rises=F Damp=F
 DIIS: error= 2.41D-09 at cycle  13 NSaved=  13.
 NSaved=13 IEnMin=13 EnMin= -409.403476095159     IErMin=13 ErrMin= 2.41D-09
 ErrMax= 2.41D-09  0.00D+00 EMaxC= 1.00D-01 BMatC= 1.08D-14 BMatP= 1.05D-13
 IDIUse=1 WtCom= 1.00D+00 WtEn= 0.00D+00
 Coeff-Com: -0.286D-07-0.185D-06-0.126D-05-0.203D-05 0.639D-05 0.103D-03
 Coeff-Com:  0.256D-03-0.125D-02-0.597D-02-0.140D-01 0.249D-01 0.286D+00
 Coeff-Com:  0.710D+00
 Coeff:     -0.286D-07-0.185D-06-0.126D-05-0.203D-05 0.639D-05 0.103D-03
 Coeff:      0.256D-03-0.125D-02-0.597D-02-0.140D-01 0.249D-01 0.286D+00
 Coeff:      0.710D+00
 Gap=     0.395 Goal=   None    Shift=    0.000
 RMSDP=5.11D-09 MaxDP=2.04D-07 DE=-1.39D-11 OVMax= 1.98D-08

 SCF Done:  E(RM062X) =  -409.403476095     A.U. after   13 cycles
            NFock= 13  Conv=0.51D-08     -V/T= 2.0063
 KE= 4.068482732733D+02 PE=-2.142992531542D+03 EE= 7.219364355273D+02
 Leave Link  502 at Mon Oct 31 15:24:22 2022, MaxMem=  8589934592 cpu:            2357.6 elap:             147.4
 (Enter /usr/local/gaussian/g16a03/g16/l801.exe)
 DoSCS=F DFT=T ScalE2(SS,OS)=  1.000000  1.000000
 Range of M.O.s used for correlation:     1   420
 NBasis=   420 NAE=    40 NBE=    40 NFC=     0 NFV=     0
 NROrb=    420 NOA=    40 NOB=    40 NVA=   380 NVB=   380

 **** Warning!!: The largest alpha MO coefficient is  0.86982235D+02

 Leave Link  801 at Mon Oct 31 15:24:22 2022, MaxMem=  8589934592 cpu:               0.4 elap:               0.0
 (Enter /usr/local/gaussian/g16a03/g16/l1002.exe)
 Minotr:  Closed shell wavefunction.
          Direct CPHF calculation.
          Differentiating once with respect to electric field.
                with respect to dipole field.
          Electric field/nuclear overlap derivatives assumed to be zero.
          Requested convergence is 1.0D-08 RMS, and 1.0D-07 maximum.
          Secondary convergence is 1.0D-12 RMS, and 1.0D-12 maximum.
          NewPWx=F KeepS1=T KeepF1=T KeepIn=T MapXYZ=F SortEE=F KeepMc=T.
         9298 words used for storage of precomputed grid.
 Two-electron integral symmetry used by symmetrizing perturbed Fock matrices.
          MDV=    8589934592 using IRadAn=       1.
          Solving linear equations simultaneously, MaxMat=     384.
          There are     3 degrees of freedom in the 1st order CPHF.  IDoFFX=0 NUNeed=     3.
      3 vectors produced by pass  0 Test12= 5.07D-13 3.33D-08 XBig12= 4.80D+01 8.97D-01.
 AX will form     3 AO Fock derivatives at one time.
 FoFJK:  IHMeth= 1 ICntrl=       0 DoSepK=F KAlg= 0 I1Cent=           0 FoldK=F
 IRaf= 980000000 NMat=       3 IRICut=       1 DoRegI=T DoRafI=F ISym2E=-1 IDoP0=0 IntGTp=1.
 FoFCou: FMM=F IPFlag=           0 FMFlag=      100000 FMFlg1=           0
         NFxFlg=           0 DoJE=F BraDBF=F KetDBF=F FulRan=T
         wScrn=  0.000000 ICntrl=         0 IOpCl=  0 I1Cent=           0 NGrid=           0
         NMat0=    3 NMatS0=      3 NMatT0=    0 NMatD0=    3 NMtDS0=    0 NMtDT0=    0
 Petite list used in FoFCou.
      3 vectors produced by pass  1 Test12= 5.07D-13 3.33D-08 XBig12= 4.71D+00 2.21D-01.
      3 vectors produced by pass  2 Test12= 5.07D-13 3.33D-08 XBig12= 5.24D-01 4.46D-02.
      3 vectors produced by pass  3 Test12= 5.07D-13 3.33D-08 XBig12= 5.53D-02 1.64D-02.
      3 vectors produced by pass  4 Test12= 5.07D-13 3.33D-08 XBig12= 7.19D-03 6.43D-03.
      3 vectors produced by pass  5 Test12= 5.07D-13 3.33D-08 XBig12= 9.93D-04 2.72D-03.
      3 vectors produced by pass  6 Test12= 5.07D-13 3.33D-08 XBig12= 9.26D-05 5.66D-04.
      3 vectors produced by pass  7 Test12= 5.07D-13 3.33D-08 XBig12= 1.09D-05 2.13D-04.
      3 vectors produced by pass  8 Test12= 5.07D-13 3.33D-08 XBig12= 6.77D-07 8.59D-05.
      3 vectors produced by pass  9 Test12= 5.07D-13 3.33D-08 XBig12= 5.79D-08 1.94D-05.
      3 vectors produced by pass 10 Test12= 5.07D-13 3.33D-08 XBig12= 8.94D-09 7.83D-06.
      3 vectors produced by pass 11 Test12= 5.07D-13 3.33D-08 XBig12= 7.30D-10 1.73D-06.
      3 vectors produced by pass 12 Test12= 5.07D-13 3.33D-08 XBig12= 3.77D-11 3.99D-07.
      2 vectors produced by pass 13 Test12= 5.07D-13 3.33D-08 XBig12= 1.56D-12 7.96D-08.
 InvSVY:  IOpt=1 It=  1 EMax= 4.44D-15
 Solved reduced A of dimension    41 with     3 vectors.
 FullF1:  Do perturbations      1 to       3.
 SCF Polarizability for W=    0.000000:
                1             2             3 
      1  0.124530D+03
      2  0.812024D+00  0.100881D+03
      3 -0.147894D+01  0.691982D+00  0.947876D+02
 Isotropic polarizability for W=    0.000000      106.73 Bohr**3.
 SCF Static Hyperpolarizability:
 K=  1 block:
                1 
      1  0.392200D+02
 K=  2 block:
                1             2 
      1 -0.847408D+01
      2 -0.881320D+01 -0.109307D+02
 K=  3 block:
                1             2             3 
      1 -0.441390D+01
      2 -0.307224D+01 -0.620794D+01
      3 -0.348808D+01 -0.715593D+01 -0.139114D+02
 End of Minotr F.D. properties file   721 does not exist.
 End of Minotr F.D. properties file   722 does not exist.
 End of Minotr F.D. properties file   788 does not exist.
 Leave Link 1002 at Mon Oct 31 15:29:13 2022, MaxMem=  8589934592 cpu:            4653.4 elap:             290.9
 (Enter /usr/local/gaussian/g16a03/g16/l601.exe)
 Copying SCF densities to generalized density rwf, IOpCl= 0 IROHF=0.

 **********************************************************************

            Population analysis using the SCF density.

 **********************************************************************

 Orbital symmetries:
       Occupied  (A) (A) (A) (A) (A) (A) (A) (A) (A) (A) (A) (A)
                 (A) (A) (A) (A) (A) (A) (A) (A) (A) (A) (A) (A)
                 (A) (A) (A) (A) (A) (A) (A) (A) (A) (A) (A) (A)
                 (A) (A) (A) (A)
       Virtual   (A) (A) (A) (A) (A) (A) (A) (A) (A) (A) (A) (A)
                 (A) (A) (A) (A) (A) (A) (A) (A) (A) (A) (A) (A)
                 (A) (A) (A) (A) (A) (A) (A) (A) (A) (A) (A) (A)
                 (A) (A) (A) (A) (A) (A) (A) (A) (A) (A) (A) (A)
                 (A) (A) (A) (A) (A) (A) (A) (A) (A) (A) (A) (A)
                 (A) (A) (A) (A) (A) (A) (A) (A) (A) (A) (A) (A)
                 (A) (A) (A) (A) (A) (A) (A) (A) (A) (A) (A) (A)
                 (A) (A) (A) (A) (A) (A) (A) (A) (A) (A) (A) (A)
                 (A) (A) (A) (A) (A) (A) (A) (A) (A) (A) (A) (A)
                 (A) (A) (A) (A) (A) (A) (A) (A) (A) (A) (A) (A)
                 (A) (A) (A) (A) (A) (A) (A) (A) (A) (A) (A) (A)
                 (A) (A) (A) (A) (A) (A) (A) (A) (A) (A) (A) (A)
                 (A) (A) (A) (A) (A) (A) (A) (A) (A) (A) (A) (A)
                 (A) (A) (A) (A) (A) (A) (A) (A) (A) (A) (A) (A)
                 (A) (A) (A) (A) (A) (A) (A) (A) (A) (A) (A) (A)
                 (A) (A) (A) (A) (A) (A) (A) (A) (A) (A) (A) (A)
                 (A) (A) (A) (A) (A) (A) (A) (A) (A) (A) (A) (A)
                 (A) (A) (A) (A) (A) (A) (A) (A) (A) (A) (A) (A)
                 (A) (A) (A) (A) (A) (A) (A) (A) (A) (A) (A) (A)
                 (A) (A) (A) (A) (A) (A) (A) (A) (A) (A) (A) (A)
                 (A) (A) (A) (A) (A) (A) (A) (A) (A) (A) (A) (A)
                 (A) (A) (A) (A) (A) (A) (A) (A) (A) (A) (A) (A)
                 (A) (A) (A) (A) (A) (A) (A) (A) (A) (A) (A) (A)
                 (A) (A) (A) (A) (A) (A) (A) (A) (A) (A) (A) (A)
                 (A) (A) (A) (A) (A) (A) (A) (A) (A) (A) (A) (A)
                 (A) (A) (A) (A) (A) (A) (A) (A) (A) (A) (A) (A)
                 (A) (A) (A) (A) (A) (A) (A) (A) (A) (A) (A) (A)
                 (A) (A) (A) (A) (A) (A) (A) (A) (A) (A) (A) (A)
                 (A) (A) (A) (A) (A) (A) (A) (A) (A) (A) (A) (A)
                 (A) (A) (A) (A) (A) (A) (A) (A) (A) (A) (A) (A)
                 (A) (A) (A) (A) (A) (A) (A) (A) (A) (A) (A) (A)
                 (A) (A) (A) (A) (A) (A) (A) (A)
 The electronic state is 1-A.
 Alpha  occ. eigenvalues --  -15.02575 -10.75451 -10.75434 -10.75283 -10.75224
 Alpha  occ. eigenvalues --  -10.70587 -10.70490 -10.69417 -10.67648 -10.64849
 Alpha  occ. eigenvalues --   -1.28347  -1.08288  -1.04335  -1.01291  -0.98817
 Alpha  occ. eigenvalues --   -0.95254  -0.88221  -0.85125  -0.83786  -0.80799
 Alpha  occ. eigenvalues --   -0.76425  -0.74915  -0.71793  -0.69322  -0.68940
 Alpha  occ. eigenvalues --   -0.66614  -0.65715  -0.63457  -0.62598  -0.61524
 Alpha  occ. eigenvalues --   -0.61494  -0.59161  -0.57979  -0.57578  -0.57322
 Alpha  occ. eigenvalues --   -0.56731  -0.55526  -0.53055  -0.52180  -0.51959
 Alpha virt. eigenvalues --   -0.12463  -0.11087  -0.10706  -0.10255  -0.08684
 Alpha virt. eigenvalues --   -0.08587  -0.08278  -0.08062  -0.07900  -0.06841
 Alpha virt. eigenvalues --   -0.05789  -0.05527  -0.05330  -0.05117  -0.04943
 Alpha virt. eigenvalues --   -0.04681  -0.03809  -0.03721  -0.02962  -0.02726
 Alpha virt. eigenvalues --   -0.02593  -0.02057  -0.01872  -0.01270  -0.00967
 Alpha virt. eigenvalues --   -0.00865  -0.00685  -0.00449   0.00082   0.00338
 Alpha virt. eigenvalues --    0.00754   0.00992   0.01061   0.01358   0.01669
 Alpha virt. eigenvalues --    0.01792   0.01851   0.01903   0.01977   0.02419
 Alpha virt. eigenvalues --    0.02585   0.03304   0.03543   0.03913   0.04119
 Alpha virt. eigenvalues --    0.04377   0.04751   0.04868   0.05350   0.05806
 Alpha virt. eigenvalues --    0.05980   0.06340   0.06499   0.06784   0.07085
 Alpha virt. eigenvalues --    0.07532   0.07747   0.08163   0.08569   0.08714
 Alpha virt. eigenvalues --    0.09132   0.09407   0.09690   0.10077   0.10608
 Alpha virt. eigenvalues --    0.10866   0.11024   0.11638   0.12045   0.12612
 Alpha virt. eigenvalues --    0.13053   0.13254   0.13913   0.14250   0.14559
 Alpha virt. eigenvalues --    0.14861   0.15167   0.15738   0.16206   0.16290
 Alpha virt. eigenvalues --    0.16852   0.16993   0.17550   0.18050   0.18255
 Alpha virt. eigenvalues --    0.18446   0.19088   0.19560   0.19872   0.20036
 Alpha virt. eigenvalues --    0.20381   0.20793   0.21349   0.21623   0.22135
 Alpha virt. eigenvalues --    0.22455   0.22862   0.22999   0.23432   0.23808
 Alpha virt. eigenvalues --    0.24300   0.24478   0.24564   0.25344   0.25659
 Alpha virt. eigenvalues --    0.25948   0.26245   0.26643   0.26949   0.27237
 Alpha virt. eigenvalues --    0.27673   0.28029   0.28368   0.28620   0.28804
 Alpha virt. eigenvalues --    0.29240   0.29557   0.29715   0.30145   0.30541
 Alpha virt. eigenvalues --    0.30852   0.31274   0.31589   0.31944   0.32773
 Alpha virt. eigenvalues --    0.33158   0.33769   0.33834   0.34726   0.34869
 Alpha virt. eigenvalues --    0.35190   0.35606   0.35860   0.36343   0.36655
 Alpha virt. eigenvalues --    0.37033   0.37106   0.37792   0.37975   0.38382
 Alpha virt. eigenvalues --    0.38662   0.39119   0.39541   0.40008   0.40583
 Alpha virt. eigenvalues --    0.40773   0.40932   0.41363   0.41683   0.42022
 Alpha virt. eigenvalues --    0.42238   0.42700   0.43277   0.43932   0.43964
 Alpha virt. eigenvalues --    0.44493   0.44585   0.44939   0.45311   0.45614
 Alpha virt. eigenvalues --    0.46134   0.46979   0.47170   0.47773   0.48360
 Alpha virt. eigenvalues --    0.48681   0.48935   0.49213   0.49816   0.49904
 Alpha virt. eigenvalues --    0.51492   0.51586   0.52255   0.52578   0.52977
 Alpha virt. eigenvalues --    0.53670   0.53947   0.54529   0.54711   0.55499
 Alpha virt. eigenvalues --    0.56083   0.57103   0.57895   0.58830   0.58863
 Alpha virt. eigenvalues --    0.59773   0.60066   0.60705   0.60922   0.61419
 Alpha virt. eigenvalues --    0.61700   0.62562   0.62961   0.63717   0.64185
 Alpha virt. eigenvalues --    0.65176   0.65653   0.66528   0.66945   0.67545
 Alpha virt. eigenvalues --    0.68572   0.69162   0.70531   0.71353   0.72490
 Alpha virt. eigenvalues --    0.72984   0.74541   0.75245   0.76861   0.77400
 Alpha virt. eigenvalues --    0.78245   0.78739   0.79961   0.81220   0.81949
 Alpha virt. eigenvalues --    0.82781   0.83409   0.84566   0.85100   0.86224
 Alpha virt. eigenvalues --    0.86530   0.88179   0.89541   0.90301   0.90472
 Alpha virt. eigenvalues --    0.91919   0.93142   0.93715   0.94379   0.95363
 Alpha virt. eigenvalues --    0.96140   0.97420   0.98317   0.99488   0.99771
 Alpha virt. eigenvalues --    1.00685   1.01302   1.02666   1.03723   1.05192
 Alpha virt. eigenvalues --    1.06210   1.07000   1.07360   1.08294   1.08673
 Alpha virt. eigenvalues --    1.09653   1.10766   1.11946   1.12964   1.15000
 Alpha virt. eigenvalues --    1.15332   1.16248   1.16835   1.18436   1.19460
 Alpha virt. eigenvalues --    1.20180   1.21760   1.24113   1.24758   1.26117
 Alpha virt. eigenvalues --    1.26268   1.28218   1.29058   1.30578   1.30916
 Alpha virt. eigenvalues --    1.32366   1.32823   1.33459   1.34410   1.36260
 Alpha virt. eigenvalues --    1.36469   1.37789   1.39325   1.39761   1.40533
 Alpha virt. eigenvalues --    1.41356   1.42373   1.42969   1.43783   1.45702
 Alpha virt. eigenvalues --    1.46150   1.46889   1.47529   1.48619   1.49774
 Alpha virt. eigenvalues --    1.50523   1.52257   1.52494   1.52878   1.53261
 Alpha virt. eigenvalues --    1.54356   1.55248   1.56593   1.57994   1.59575
 Alpha virt. eigenvalues --    1.60164   1.61474   1.62621   1.63566   1.64921
 Alpha virt. eigenvalues --    1.65792   1.66313   1.68007   1.70080   1.71186
 Alpha virt. eigenvalues --    1.71868   1.72963   1.74184   1.75876   1.76049
 Alpha virt. eigenvalues --    1.77265   1.77999   1.80026   1.81804   1.82214
 Alpha virt. eigenvalues --    1.83235   1.84259   1.85898   1.87471   1.88866
 Alpha virt. eigenvalues --    1.90540   1.91510   1.92887   1.96042   1.96733
 Alpha virt. eigenvalues --    1.97464   1.98836   1.99334   2.00875   2.02826
 Alpha virt. eigenvalues --    2.03212   2.05612   2.06051   2.07823   2.08571
 Alpha virt. eigenvalues --    2.12020   2.13696   2.14458   2.16083   2.16739
 Alpha virt. eigenvalues --    2.17549   2.18105   2.19308   2.20929   2.25582
 Alpha virt. eigenvalues --    2.27335   2.29367   2.31348   2.32974   2.36288
 Alpha virt. eigenvalues --    2.38177   2.39827   2.42772   2.45421   2.47240
 Alpha virt. eigenvalues --    2.49257   2.50377   2.52956   2.54236   2.55393
 Alpha virt. eigenvalues --    2.59791   2.62398   2.66120   2.66363   2.71838
 Alpha virt. eigenvalues --    2.73085   2.76014   2.79032   2.83281   2.89937
 Alpha virt. eigenvalues --   21.87031  21.91111  22.00285  22.04416  22.07250
 Alpha virt. eigenvalues --   22.11271  22.17264  22.20723  22.23913  33.14123
          Condensed to atoms (all electrons):
               1          2          3          4          5          6
     1  C   34.462811 -11.845175   7.852144   0.003085   1.376876 -16.786676
     2  C  -11.845175  30.117493  -5.230712   1.317477  -5.145216   1.954878
     3  C    7.852144  -5.230712  34.669900  -0.521486   0.633293 -17.086734
     4  H    0.003085   1.317477  -0.521486   9.415345  -5.179531   0.813180
     5  H    1.376876  -5.145216   0.633293  -5.179531   7.654497  -0.029342
     6  C  -16.786676   1.954878 -17.086734   0.813180  -0.029342  45.821976
     7  H    0.855320   0.157167  -4.017426  -1.069270   0.590493  -0.088621
     8  H   -0.983156  -0.132530   0.063426   1.285332  -1.143231   2.523557
     9  N   -5.597512   1.664178   0.255125  -0.808716   0.937225  -2.264243
    10  H   -0.960959  -3.544346  -1.866777  -0.449404   0.192085   0.568430
    11  H    1.268123   0.878711  -0.078710  -0.572800   0.295939  -4.445440
    12  H    1.392004   0.890446  -0.877118   1.469290  -1.487393  -2.109986
    13  H    0.676417  -3.361740   1.493937  -1.657614   1.021868  -0.386217
    14  C   -2.785155  -0.703667  -3.747982  -0.660084   0.595094  -1.510895
    15  H    2.438034  -0.506655   0.933965  -0.085547  -0.031347  -1.752801
    16  H   -2.491778   0.174756  -2.958716  -0.004714   0.218625   3.771925
    17  H   -0.261837   0.211791  -0.127010  -0.156872   0.120645   0.391073
    18  C   -0.058045  -3.897972  -3.536905  -0.479445   0.679628  -3.097830
    19  C   -0.399845  -0.650589   1.352345  -0.488701   0.279849  -4.318872
    20  H   -0.066748   0.775114  -0.686036   0.042206   0.001098   0.730386
    21  H    0.134058  -1.821275   0.826013  -1.090839   0.413890  -0.144958
    22  C   -2.209909   0.736096  -3.678674   0.451297  -0.156960   3.147294
    23  H   -0.216197   0.330229  -1.164328  -0.098137   0.040148  -0.838913
    24  H   -0.288442  -0.153921   0.393534   0.058054  -0.015897   1.316943
    25  C   -0.121946  -0.027127  -0.626096   0.023931  -0.007340  -1.757308
    26  H   -0.100891   0.635295  -0.624781   0.173940  -0.026422  -0.235232
    27  H   -0.072313  -0.062964   0.724914  -0.018791   0.009946   1.974232
    28  H   -0.044311  -0.033279  -0.016378  -0.010477   0.000836  -0.255433
    29  H    0.019551  -0.015066  -0.050671   0.000908  -0.000974  -0.250824
    30  H    0.019690   0.029283   0.037696   0.009806  -0.001257   0.466878
               7          8          9         10         11         12
     1  C    0.855320  -0.983156  -5.597512  -0.960959   1.268123   1.392004
     2  C    0.157167  -0.132530   1.664178  -3.544346   0.878711   0.890446
     3  C   -4.017426   0.063426   0.255125  -1.866777  -0.078710  -0.877118
     4  H   -1.069270   1.285332  -0.808716  -0.449404  -0.572800   1.469290
     5  H    0.590493  -1.143231   0.937225   0.192085   0.295939  -1.487393
     6  C   -0.088621   2.523557  -2.264243   0.568430  -4.445440  -2.109986
     7  H    7.979395  -5.265190   0.603370  -2.137149   0.895649   0.143163
     8  H   -5.265190   9.053688   0.218183   2.308221  -1.832602   0.094148
     9  N    0.603370   0.218183  51.256845   0.336070  -0.626341  -1.527000
    10  H   -2.137149   2.308221   0.336070  15.261490  -6.873689  -0.675168
    11  H    0.895649  -1.832602  -0.626341  -6.873689  12.675995  -0.117547
    12  H    0.143163   0.094148  -1.527000  -0.675168  -0.117547  10.913564
    13  H    0.203744  -0.213524  -2.726435   0.165505   0.121622  -5.063105
    14  C    0.912672  -0.956555  -6.934347  -0.892903   1.149467   1.846124
    15  H    0.171914   0.053393  -3.571255  -0.101255  -0.349758   1.140909
    16  H    0.344260  -1.486647  -2.622215  -0.554296   0.856714  -0.702126
    17  H   -0.003380  -0.042394  -4.208823   0.166544   0.221835  -1.098490
    18  C    0.638732  -0.898231  -7.072593   0.983665   0.621364  -1.248147
    19  C    0.113013  -0.118351   6.089604  -1.428504   0.250480  -0.358278
    20  H    0.010092  -0.120527  -3.984133  -0.128023   0.182898   0.304302
    21  H    0.329021  -0.283277  -1.924770   0.491600  -0.391784  -0.445896
    22  C    0.100981  -0.112388  -2.414125   2.411980  -1.482921  -0.256705
    23  H    0.035696  -0.175368  -4.823245   0.050222   0.265293  -0.300302
    24  H   -0.005477   0.026861  -0.182727  -0.021270   0.178319   0.016111
    25  C    0.025045  -0.040214  -2.092943   0.767640  -0.189331  -0.050178
    26  H    0.029858  -0.085706  -1.716963  -1.867620   0.632989   0.028474
    27  H    0.077301  -0.050086   2.073756   0.174872  -1.921948  -0.048006
    28  H   -0.002578   0.004083   0.200095   0.179129  -0.204882  -0.005970
    29  H    0.001271  -0.006599  -0.268145   0.109726   0.066605   0.002395
    30  H    0.003577   0.002748   0.053169  -0.176721   0.157975  -0.001983
              13         14         15         16         17         18
     1  C    0.676417  -2.785155   2.438034  -2.491778  -0.261837  -0.058045
     2  C   -3.361740  -0.703667  -0.506655   0.174756   0.211791  -3.897972
     3  C    1.493937  -3.747982   0.933965  -2.958716  -0.127010  -3.536905
     4  H   -1.657614  -0.660084  -0.085547  -0.004714  -0.156872  -0.479445
     5  H    1.021868   0.595094  -0.031347   0.218625   0.120645   0.679628
     6  C   -0.386217  -1.510895  -1.752801   3.771925   0.391073  -3.097830
     7  H    0.203744   0.912672   0.171914   0.344260  -0.003380   0.638732
     8  H   -0.213524  -0.956555   0.053393  -1.486647  -0.042394  -0.898231
     9  N   -2.726435  -6.934347  -3.571255  -2.622215  -4.208823  -7.072593
    10  H    0.165505  -0.892903  -0.101255  -0.554296   0.166544   0.983665
    11  H    0.121622   1.149467  -0.349758   0.856714   0.221835   0.621364
    12  H   -5.063105   1.846124   1.140909  -0.702126  -1.098490  -1.248147
    13  H    9.518832  -1.281719   0.110294  -0.541206   0.647124   2.601329
    14  C   -1.281719  17.693896  -0.228715  -0.558791   0.597735  -1.512260
    15  H    0.110294  -0.228715  14.337640  -4.938804  -2.673248  -1.863803
    16  H   -0.541206  -0.558791  -4.938804  11.382762  -1.911814   1.056253
    17  H    0.647124   0.597735  -2.673248  -1.911814   9.599575   1.398841
    18  C    2.601329  -1.512260  -1.863803   1.056253   1.398841  36.437136
    19  C    0.206952  -2.572456   0.755632   0.383350  -2.093378 -15.332534
    20  H   -0.857136   0.821310   0.536927   0.336203  -0.046133  -1.972581
    21  H    0.638192   0.304211  -0.224719   0.314963  -0.234619   0.077180
    22  C    0.181056  -0.209589  -0.464702   0.578482   0.983475  -1.904463
    23  H   -0.162751   1.650435  -1.000786   0.707307  -0.285068   2.702496
    24  H    0.154431   0.530335   0.248801   0.012078   0.382813   1.867761
    25  C   -0.062661   0.831484  -0.191689   0.171447   0.135149   0.877066
    26  H    0.010468   1.152303   0.539653   0.041852   0.119170   0.642739
    27  H    0.136110  -0.977048  -1.549158   0.312758  -0.195434  -2.314087
    28  H   -0.005946  -0.019355  -0.121186   0.015882  -0.015981  -0.202016
    29  H   -0.002293   0.029726   0.059876   0.001465   0.009797   0.593347
    30  H   -0.004857  -0.008477   0.157783  -0.041264   0.051477  -0.501297
              19         20         21         22         23         24
     1  C   -0.399845  -0.066748   0.134058  -2.209909  -0.216197  -0.288442
     2  C   -0.650589   0.775114  -1.821275   0.736096   0.330229  -0.153921
     3  C    1.352345  -0.686036   0.826013  -3.678674  -1.164328   0.393534
     4  H   -0.488701   0.042206  -1.090839   0.451297  -0.098137   0.058054
     5  H    0.279849   0.001098   0.413890  -0.156960   0.040148  -0.015897
     6  C   -4.318872   0.730386  -0.144958   3.147294  -0.838913   1.316943
     7  H    0.113013   0.010092   0.329021   0.100981   0.035696  -0.005477
     8  H   -0.118351  -0.120527  -0.283277  -0.112388  -0.175368   0.026861
     9  N    6.089604  -3.984133  -1.924770  -2.414125  -4.823245  -0.182727
    10  H   -1.428504  -0.128023   0.491600   2.411980   0.050222  -0.021270
    11  H    0.250480   0.182898  -0.391784  -1.482921   0.265293   0.178319
    12  H   -0.358278   0.304302  -0.445896  -0.256705  -0.300302   0.016111
    13  H    0.206952  -0.857136   0.638192   0.181056  -0.162751   0.154431
    14  C   -2.572456   0.821310   0.304211  -0.209589   1.650435   0.530335
    15  H    0.755632   0.536927  -0.224719  -0.464702  -1.000786   0.248801
    16  H    0.383350   0.336203   0.314963   0.578482   0.707307   0.012078
    17  H   -2.093378  -0.046133  -0.234619   0.983475  -0.285068   0.382813
    18  C  -15.332534  -1.972581   0.077180  -1.904463   2.702496   1.867761
    19  C   41.054409  -2.985817   1.685164 -13.158950  -1.940092  -5.399446
    20  H   -2.985817  12.398009  -7.040720   3.296080  -0.254095   0.859538
    21  H    1.685164  -7.040720  14.523833  -3.381783   1.371019  -1.458369
    22  C  -13.158950   3.296080  -3.381783  35.933258  -2.137504   0.084565
    23  H   -1.940092  -0.254095   1.371019  -2.137504  14.023059  -6.484562
    24  H   -5.399446   0.859538  -1.458369   0.084565  -6.484562  10.347101
    25  C    1.010288  -0.159904   0.417235 -11.599057   1.534093   0.163318
    26  H    1.772729  -0.093448  -1.303869  -2.856846  -0.297425   0.199795
    27  H   -0.047030   0.198857   0.306155   0.090904  -0.112764  -0.436683
    28  H   -1.530252   0.056141   0.287425   2.105134   0.738582  -1.493993
    29  H    2.091174   0.012970   0.065589  -1.693935   0.118400   0.340673
    30  H   -0.904903  -0.084194  -0.213988   3.585414  -1.176428   0.658535
              25         26         27         28         29         30
     1  C   -0.121946  -0.100891  -0.072313  -0.044311   0.019551   0.019690
     2  C   -0.027127   0.635295  -0.062964  -0.033279  -0.015066   0.029283
     3  C   -0.626096  -0.624781   0.724914  -0.016378  -0.050671   0.037696
     4  H    0.023931   0.173940  -0.018791  -0.010477   0.000908   0.009806
     5  H   -0.007340  -0.026422   0.009946   0.000836  -0.000974  -0.001257
     6  C   -1.757308  -0.235232   1.974232  -0.255433  -0.250824   0.466878
     7  H    0.025045   0.029858   0.077301  -0.002578   0.001271   0.003577
     8  H   -0.040214  -0.085706  -0.050086   0.004083  -0.006599   0.002748
     9  N   -2.092943  -1.716963   2.073756   0.200095  -0.268145   0.053169
    10  H    0.767640  -1.867620   0.174872   0.179129   0.109726  -0.176721
    11  H   -0.189331   0.632989  -1.921948  -0.204882   0.066605   0.157975
    12  H   -0.050178   0.028474  -0.048006  -0.005970   0.002395  -0.001983
    13  H   -0.062661   0.010468   0.136110  -0.005946  -0.002293  -0.004857
    14  C    0.831484   1.152303  -0.977048  -0.019355   0.029726  -0.008477
    15  H   -0.191689   0.539653  -1.549158  -0.121186   0.059876   0.157783
    16  H    0.171447   0.041852   0.312758   0.015882   0.001465  -0.041264
    17  H    0.135149   0.119170  -0.195434  -0.015981   0.009797   0.051477
    18  C    0.877066   0.642739  -2.314087  -0.202016   0.593347  -0.501297
    19  C    1.010288   1.772729  -0.047030  -1.530252   2.091174  -0.904903
    20  H   -0.159904  -0.093448   0.198857   0.056141   0.012970  -0.084194
    21  H    0.417235  -1.303869   0.306155   0.287425   0.065589  -0.213988
    22  C  -11.599057  -2.856846   0.090904   2.105134  -1.693935   3.585414
    23  H    1.534093  -0.297425  -0.112764   0.738582   0.118400  -1.176428
    24  H    0.163318   0.199795  -0.436683  -1.493993   0.340673   0.658535
    25  C   19.149492  -0.631894  -2.163831  -1.010481  -0.268726  -2.971604
    26  H   -0.631894  10.806740  -4.669913  -1.455642  -0.295009   1.415589
    27  H   -2.163831  -4.669913  11.295434   2.233741  -1.493071  -1.611213
    28  H   -1.010481  -1.455642   2.233741   7.116159  -2.799284  -1.991259
    29  H   -0.268726  -0.295009  -1.493071  -2.799284   6.976240  -1.762813
    30  H   -2.971604   1.415589  -1.611213  -1.991259  -1.762813   6.596059
 Mulliken charges:
               1
     1  C    0.792783
     2  C    3.259319
     3  C    3.660245
     4  H   -0.711422
     5  H   -0.837126
     6  C   -0.120429
     7  H   -0.632638
     8  H   -0.687062
     9  N   -1.321090
    10  H   -1.489094
    11  H   -0.632224
    12  H   -0.867533
    13  H   -0.560676
    14  C    3.445205
    15  H   -0.829395
    16  H   -0.868711
    17  H   -0.682564
    18  C    0.714673
    19  C    2.683009
    20  H   -1.082638
    21  H   -1.224681
    22  C    0.032496
    23  H   -1.099015
    24  H   -0.898778
    25  C    4.866142
    26  H   -0.939932
    27  H   -0.864640
    28  H   -0.718502
    29  H   -0.592303
    30  H   -0.793420
 Sum of Mulliken charges =   1.00000
 Mulliken charges with hydrogens summed into heavy atoms:
               1
     1  C   -0.635426
     2  C    1.710771
     3  C    2.340545
     6  C   -2.241747
     9  N   -1.321090
    14  C    1.064536
    18  C   -1.592646
    19  C    0.685217
    22  C   -1.772077
    25  C    2.761917
 Electronic spatial extent (au):  <R**2>=           1932.5963
 Charge=              1.0000 electrons
 Dipole moment (field-independent basis, Debye):
    X=              2.7816    Y=             -1.1597    Z=              0.5867  Tot=              3.0702
 Quadrupole moment (field-independent basis, Debye-Ang):
   XX=            -44.5287   YY=            -55.0412   ZZ=            -56.5806
   XY=              0.0487   XZ=              0.5685   YZ=             -0.5048
 Traceless Quadrupole moment (field-independent basis, Debye-Ang):
   XX=              7.5215   YY=             -2.9910   ZZ=             -4.5305
   XY=              0.0487   XZ=              0.5685   YZ=             -0.5048
 Octapole moment (field-independent basis, Debye-Ang**2):
  XXX=             16.1057  YYY=             -3.0411  ZZZ=              4.5062  XYY=              8.1991
  XXY=              4.1349  XXZ=             -2.2201  XZZ=              4.9011  YZZ=             -5.0966
  YYZ=              1.8096  XYZ=             -1.2811
 Hexadecapole moment (field-independent basis, Debye-Ang**3):
 XXXX=          -1673.6043 YYYY=           -413.2611 ZZZZ=           -284.1825 XXXY=             -8.4826
 XXXZ=             -4.2551 YYYX=              3.9285 YYYZ=             -2.2616 ZZZX=              5.2394
 ZZZY=             -4.3887 XXYY=           -358.7745 XXZZ=           -343.9978 YYZZ=           -114.7100
 XXYZ=              1.8655 YYXZ=              0.4232 ZZXY=              1.1271
 N-N= 6.048043466459D+02 E-N=-2.142992531424D+03  KE= 4.068482732733D+02
  Exact polarizability: 124.530   0.812 100.881  -1.479   0.692  94.788
 Approx polarizability: 128.372   0.654 124.992  -0.455   0.417 123.302
 No NMR shielding tensors so no spin-rotation constants.
 Leave Link  601 at Mon Oct 31 15:29:14 2022, MaxMem=  8589934592 cpu:               4.8 elap:               0.4
 (Enter /usr/local/gaussian/g16a03/g16/l9999.exe)

 ----------------------------------------------------------------------

 Electric dipole moment (input orientation):
 (Debye = 10**-18 statcoulomb cm , SI units = C m)
                  (au)            (Debye)         (10**-30 SI)
   Tot        0.120793D+01      0.307025D+01      0.102412D+02
   x         -0.540501D+00     -0.137382D+01     -0.458256D+01
   y          0.971335D+00      0.246889D+01      0.823532D+01
   z          0.472714D+00      0.120152D+01      0.400783D+01

 Dipole polarizability, Alpha (input orientation).
 (esu units = cm**3 , SI units = C**2 m**2 J**-1)
 Alpha(0;0):
               (au)            (10**-24 esu)      (10**-40 SI)
   iso        0.106733D+03      0.158162D+02      0.175979D+02
   aniso      0.273953D+02      0.405957D+01      0.451688D+01
   xx         0.101948D+03      0.151071D+02      0.168089D+02
   yx        -0.688663D+01     -0.102049D+01     -0.113545D+01
   yy         0.103653D+03      0.153598D+02      0.170901D+02
   zx        -0.520955D+01     -0.771976D+00     -0.858939D+00
   zy         0.113350D+02      0.167968D+01      0.186890D+01
   zz         0.114598D+03      0.169817D+02      0.188946D+02

 First dipole hyperpolarizability, Beta (input orientation).
 ||, _|_  parallel and perpendicular components, (z) with respect to z axis,
 vector components x,y,z.  Values do not include the 1/n! factor of 1/2.
 (esu units = statvolt**-1 cm**4 , SI units = C**3 m**3 J**-2)
 Beta(0;0,0):
               (au)            (10**-30 esu)      (10**-50 SI)
   || (z)     0.656641D+01      0.567286D-01      0.210543D-01
   _|_(z)     0.218880D+01      0.189095D-01      0.701809D-02
   x         -0.129139D+03     -0.111566D+01     -0.414067D+00
   y          0.230836D+02      0.199424D+00      0.740144D-01
   z          0.328320D+02      0.283643D+00      0.105271D+00
   ||         0.270464D+02      0.233660D+00      0.867206D-01
   xxx       -0.148957D+02     -0.128687D+00     -0.477610D-01
   xxy       -0.461774D+01     -0.398937D-01     -0.148062D-01
   yxy       -0.110416D+02     -0.953907D-01     -0.354033D-01
   yyy        0.274797D+01      0.237403D-01      0.881099D-02
   xxz       -0.787086D+00     -0.679981D-02     -0.252368D-02
   yxz       -0.105808D+02     -0.914098D-01     -0.339258D-01
   yyz        0.867615D+01      0.749551D-01      0.278189D-01
   zxz       -0.171091D+02     -0.147809D+00     -0.548579D-01
   zyz        0.956431D+01      0.826282D-01      0.306666D-01
   zzz        0.305495D+01      0.263924D-01      0.979527D-02

 ----------------------------------------------------------------------

 Dipole orientation:
     6         -7.25724381         -1.73015512         -6.34070691
     6         -5.40401548         -3.91447920         -6.19478817
     6         -3.02906945         -2.80468311         -7.38299316
     1         -6.07801107         -5.52462740         -7.28910345
     1         -5.13931745         -4.53365069         -4.25510603
     6         -4.08962247         -1.39840213         -9.64057993
     1         -1.66489172         -4.22385201         -7.96730933
     1         -2.08284083         -1.51756809         -6.08051170
     7         -6.56831943         -0.24793619         -8.73402553
     1         -4.53879103         -2.69726620        -11.16531603
     1         -2.89035421          0.09355928        -10.37281406
     1         -7.02948589         -0.45122389         -4.75022617
     1         -9.22572594         -2.29122616         -6.45501518
     6         -6.18795824          2.46480929         -8.08881367
     1         -5.64179060          3.49992666         -9.77220596
     1         -4.70020600          2.60504180         -6.68066202
     1         -7.93956798          3.22552084         -7.33087144
     6         -8.68523675         -0.53817003        -10.64235765
     6         -8.54190444          1.01564922        -13.05404145
     1        -10.40004551         -0.02368573         -9.62829782
     1         -8.77341503         -2.55275930        -11.06230198
     6         -6.38186442          0.49864567        -14.89400832
     1         -8.63531354          3.02910998        -12.61508503
     1        -10.32318252          0.60061842        -14.01398907
     6         -6.80004595          1.83890603        -17.40737085
     1         -6.21474516         -1.53539190        -15.21489788
     1         -4.58351872          1.12319802        -14.09908090
     1         -8.53126137          1.18634943        -18.31337172
     1         -5.23896628          1.48681540        -18.69868215
     1         -6.95406930          3.87712650        -17.14419059

 Electric dipole moment (dipole orientation):
 (Debye = 10**-18 statcoulomb cm , SI units = C m)
                  (au)            (Debye)         (10**-30 SI)
   Tot        0.120793D+01      0.307025D+01      0.102412D+02
   x          0.000000D+00      0.000000D+00      0.000000D+00
   y          0.000000D+00      0.000000D+00      0.000000D+00
   z          0.120793D+01      0.307025D+01      0.102412D+02

 Dipole polarizability, Alpha (dipole orientation).
 (esu units = cm**3 , SI units = C**2 m**2 J**-1)
 Alpha(0;0):
               (au)            (10**-24 esu)      (10**-40 SI)
   iso        0.106733D+03      0.158162D+02      0.175979D+02
   aniso      0.273953D+02      0.405957D+01      0.451688D+01
   xx         0.100177D+03      0.148448D+02      0.165170D+02
   yx        -0.459084D+01     -0.680292D+00     -0.756927D+00
   yy         0.101119D+03      0.149843D+02      0.166723D+02
   zx         0.314933D+01      0.466682D+00      0.519254D+00
   zy        -0.103867D+02     -0.153914D+01     -0.171253D+01
   zz         0.118902D+03      0.176195D+02      0.196044D+02

 First dipole hyperpolarizability, Beta (dipole orientation).
 ||, _|_  parallel and perpendicular components, (z) with respect to z axis,
 vector components x,y,z.  Values do not include the 1/n! factor of 1/2.
 (esu units = statvolt**-1 cm**4 , SI units = C**3 m**3 J**-2)
 Beta(0;0,0):
               (au)            (10**-30 esu)      (10**-50 SI)
   || (z)     0.178391D+02      0.154116D+00      0.571987D-01
   _|_(z)     0.594637D+01      0.513720D-01      0.190662D-01
   x         -0.898945D+02     -0.776619D+00     -0.288234D+00
   y         -0.474428D+02     -0.409869D+00     -0.152119D+00
   z          0.891956D+02      0.770581D+00      0.285993D+00
   ||         0.270464D+02      0.233660D+00      0.867206D-01
   xxx       -0.271439D+02     -0.234502D+00     -0.870332D-01
   xxy        0.246056D+00      0.212573D-02      0.788945D-03
   yxy       -0.574765D+01     -0.496553D-01     -0.184291D-01
   yyy       -0.183022D+01     -0.158116D-01     -0.586833D-02
   xxz       -0.669668D+01     -0.578541D-01     -0.214720D-01
   yxz       -0.665718D+00     -0.575129D-02     -0.213453D-02
   yyz        0.373616D+01      0.322775D-01      0.119795D-01
   zxz        0.292673D+01      0.252847D-01      0.938416D-02
   zyz       -0.142301D+02     -0.122937D+00     -0.456269D-01
   zzz        0.326924D+02      0.282437D+00      0.104824D+00

 ----------------------------------------------------------------------
 1\1\GINC-MI05\SP\RM062X\Gen\C9H20N1(1+)\SOPHIEC\31-Oct-2022\0\\#P M062
 X/Gen field=Z-8 int=(grid=ultrafine) polar=Dipole\\c4mpyr_eGeom\\1,1\C
 ,0,-2.0231,-4.18137,-2.29528\C,0,-1.51702,-4.48435,-0.89675\C,0,-0.007
 88,-4.35061,-1.05271\H,0,-1.78359,-5.49831,-0.5978\H,0,-1.94113,-3.798
 11,-0.16891\C,0,0.23868,-5.0581,-2.36977\H,0,0.55427,-4.81453,-0.2468\
 H,0,0.28852,-3.30231,-1.10663\N,0,-0.94145,-4.68569,-3.25851\H,0,0.218
 48,-6.13628,-2.23918\H,0,1.15954,-4.78298,-2.87231\H,0,-2.1215,-3.1111
 6,-2.4562\H,0,-2.96459,-4.65832,-2.54631\C,0,-0.55067,-3.59072,-4.1891
 8\H,0,0.23702,-3.93912,-4.84894\H,0,-0.19092,-2.74819,-3.60496\H,0,-1.
 41956,-3.29244,-4.77068\C,0,-1.48832,-5.86965,-4.03146\C,0,-0.63969,-6
 .43617,-5.15815\H,0,-2.43488,-5.52709,-4.44643\H,0,-1.70453,-6.63103,-
 3.28204\C,0,0.70379,-7.06996,-4.80772\H,0,-0.5104,-5.69187,-5.94615\H,
 0,-1.27615,-7.20598,-5.60212\C,0,1.29289,-7.81708,-5.99755\H,0,0.57712
 ,-7.75976,-3.96906\H,0,1.41573,-6.30869,-4.48304\H,0,0.63383,-8.62436,
 -6.31742\H,0,2.25768,-8.25266,-5.7455\H,0,1.43973,-7.14886,-6.84684\\V
 ersion=ES64L-G16RevA.03\State=1-A\HF=-409.4034761\RMSD=5.114e-09\Dipol
 e=-0.5405014,0.9713347,0.4727137\Polar=101.9478456,-6.8866288,103.6531
 764,-5.2095508,11.3350413,114.5979404\HyperPolar=-14.8956997,-4.617742
 8,-11.0415827,2.7479713,-0.7870857,-10.5807924,8.676146,-17.1090864,9.
 5643075,3.0549491\Quadrupole=-2.3343094,0.3413825,1.9929269,-2.0600458
 ,-1.5482214,3.5625848\PG=C01 [X(C9H20N1)]\\@


 MY DESCRIPTION OF EXPERIENCE IS NOT WHAT HAPPENS
 TO A MAN.  EXPERIENCE IS WHAT A MAN DOES WITH WHAT
 HAPPENS TO HIM.
                         - CHUCK KNOX, SEATTLE SEAHAWKS, 1985
 Job cpu time:       0 days  1 hours 57 minutes 38.8 seconds.
 Elapsed time:       0 days  0 hours  7 minutes 21.7 seconds.
 File lengths (MBytes):  RWF=     94 Int=      0 D2E=      0 Chk=     13 Scr=      1
 Normal termination of Gaussian 16 at Mon Oct 31 15:29:14 2022.
Done.
Output directory in: /monfs01/projects/sn29/sophiec/md/polarisabilities/c4mpyr/minusZ/g16.10108898
