No checkpoint file specified...
total 0
 Entering Gaussian System, Link 0=g16
 Initial command:
 /usr/local/gaussian/g16a03/g16/l1.exe "/tmp/p2015120004.sophiec/g16.10108894/scratch/Gau-156879.inp" -scrdir="/tmp/p2015120004.sophiec/g16.10108894/scratch/"
 Entering Link 1 = /usr/local/gaussian/g16a03/g16/l1.exe PID=    156882.
  
 Copyright (c) 1988,1990,1992,1993,1995,1998,2003,2009,2016,
            Gaussian, Inc.  All Rights Reserved.
  
 This is part of the Gaussian(R) 16 program.  It is based on
 the Gaussian(R) 09 system (copyright 2009, Gaussian, Inc.),
 the Gaussian(R) 03 system (copyright 2003, Gaussian, Inc.),
 the Gaussian(R) 98 system (copyright 1998, Gaussian, Inc.),
 the Gaussian(R) 94 system (copyright 1995, Gaussian, Inc.),
 the Gaussian 92(TM) system (copyright 1992, Gaussian, Inc.),
 the Gaussian 90(TM) system (copyright 1990, Gaussian, Inc.),
 the Gaussian 88(TM) system (copyright 1988, Gaussian, Inc.),
 the Gaussian 86(TM) system (copyright 1986, Carnegie Mellon
 University), and the Gaussian 82(TM) system (copyright 1983,
 Carnegie Mellon University). Gaussian is a federally registered
 trademark of Gaussian, Inc.
  
 This software contains proprietary and confidential information,
 including trade secrets, belonging to Gaussian, Inc.
  
 This software is provided under written license and may be
 used, copied, transmitted, or stored only in accord with that
 written license.
  
 The following legend is applicable only to US Government
 contracts under FAR:
  
                    RESTRICTED RIGHTS LEGEND
  
 Use, reproduction and disclosure by the US Government is
 subject to restrictions as set forth in subparagraphs (a)
 and (c) of the Commercial Computer Software - Restricted
 Rights clause in FAR 52.227-19.
  
 Gaussian, Inc.
 340 Quinnipiac St., Bldg. 40, Wallingford CT 06492
  
  
 ---------------------------------------------------------------
 Warning -- This program may not be used in any manner that
 competes with the business of Gaussian, Inc. or will provide
 assistance to any competitor of Gaussian, Inc.  The licensee
 of this program is prohibited from giving any competitor of
 Gaussian, Inc. access to this program.  By using this program,
 the user acknowledges that Gaussian, Inc. is engaged in the
 business of creating and licensing software in the field of
 computational chemistry and represents and warrants to the
 licensee that it is not a competitor of Gaussian, Inc. and that
 it will not use this program in any manner prohibited above.
 ---------------------------------------------------------------
  

 Cite this work as:
 Gaussian 16, Revision A.03,
 M. J. Frisch, G. W. Trucks, H. B. Schlegel, G. E. Scuseria, 
 M. A. Robb, J. R. Cheeseman, G. Scalmani, V. Barone, 
 G. A. Petersson, H. Nakatsuji, X. Li, M. Caricato, A. V. Marenich, 
 J. Bloino, B. G. Janesko, R. Gomperts, B. Mennucci, H. P. Hratchian, 
 J. V. Ortiz, A. F. Izmaylov, J. L. Sonnenberg, D. Williams-Young, 
 F. Ding, F. Lipparini, F. Egidi, J. Goings, B. Peng, A. Petrone, 
 T. Henderson, D. Ranasinghe, V. G. Zakrzewski, J. Gao, N. Rega, 
 G. Zheng, W. Liang, M. Hada, M. Ehara, K. Toyota, R. Fukuda, 
 J. Hasegawa, M. Ishida, T. Nakajima, Y. Honda, O. Kitao, H. Nakai, 
 T. Vreven, K. Throssell, J. A. Montgomery, Jr., J. E. Peralta, 
 F. Ogliaro, M. J. Bearpark, J. J. Heyd, E. N. Brothers, K. N. Kudin, 
 V. N. Staroverov, T. A. Keith, R. Kobayashi, J. Normand, 
 K. Raghavachari, A. P. Rendell, J. C. Burant, S. S. Iyengar, 
 J. Tomasi, M. Cossi, J. M. Millam, M. Klene, C. Adamo, R. Cammi, 
 J. W. Ochterski, R. L. Martin, K. Morokuma, O. Farkas, 
 J. B. Foresman, and D. J. Fox, Gaussian, Inc., Wallingford CT, 2016.
 
 ******************************************
 Gaussian 16:  ES64L-G16RevA.03 25-Dec-2016
                31-Oct-2022 
 ******************************************
 %chk=spec.chk
 %mem=64gb
 %nproc=16
 Will use up to   16 processors via shared memory.
 --------------------------------------------------------
 #P M062X/Gen field=Y+8 int=(grid=ultrafine) polar=Dipole
 --------------------------------------------------------
 1/38=1,172=1/1;
 2/12=2,17=6,18=5,40=1/2;
 3/5=7,11=2,14=2,15=8,25=1,30=1,74=-55,75=-5/1,2,3;
 4//1;
 5/5=2,38=5,98=1/2;
 8/6=4,10=90,11=11/1;
 10/6=1,13=10,17=1/2;
 6/7=2,8=2,9=2,10=2,28=1/1;
 99/5=1,9=1/99;
 Leave Link    1 at Mon Oct 31 15:21:52 2022, MaxMem=  8589934592 cpu:               1.5 elap:               0.1
 (Enter /usr/local/gaussian/g16a03/g16/l101.exe)
 ------------
 c4mpyr_eGeom
 ------------
 Symbolic Z-matrix:
 Charge =  1 Multiplicity = 1
 C                    -2.0231   -4.18137  -2.29528 
 C                    -1.51702  -4.48435  -0.89675 
 C                    -0.00788  -4.35061  -1.05271 
 H                    -1.78359  -5.49831  -0.5978 
 H                    -1.94113  -3.79811  -0.16891 
 C                     0.23868  -5.0581   -2.36977 
 H                     0.55427  -4.81453  -0.2468 
 H                     0.28852  -3.30231  -1.10663 
 N                    -0.94145  -4.68569  -3.25851 
 H                     0.21848  -6.13628  -2.23918 
 H                     1.15954  -4.78298  -2.87231 
 H                    -2.1215   -3.11116  -2.4562 
 H                    -2.96459  -4.65832  -2.54631 
 C                    -0.55067  -3.59072  -4.18918 
 H                     0.23702  -3.93912  -4.84894 
 H                    -0.19092  -2.74819  -3.60496 
 H                    -1.41956  -3.29244  -4.77068 
 C                    -1.48832  -5.86965  -4.03146 
 C                    -0.63969  -6.43617  -5.15815 
 H                    -2.43488  -5.52709  -4.44643 
 H                    -1.70453  -6.63103  -3.28204 
 C                     0.70379  -7.06996  -4.80772 
 H                    -0.5104   -5.69187  -5.94615 
 H                    -1.27615  -7.20598  -5.60212 
 C                     1.29289  -7.81708  -5.99755 
 H                     0.57712  -7.75976  -3.96906 
 H                     1.41573  -6.30869  -4.48304 
 H                     0.63383  -8.62436  -6.31742 
 H                     2.25768  -8.25266  -5.7455 
 H                     1.43973  -7.14886  -6.84684 
 
 ITRead=  0  0  0  0  0  0  0  0  0  0  0  0  0  0  0  0  0  0  0  0
 ITRead=  0  0  0  0  0  0  0  0  0  0
 MicOpt= -1 -1 -1 -1 -1 -1 -1 -1 -1 -1 -1 -1 -1 -1 -1 -1 -1 -1 -1 -1
 MicOpt= -1 -1 -1 -1 -1 -1 -1 -1 -1 -1
 NAtoms=     30 NQM=       30 NQMF=       0 NMMI=      0 NMMIF=      0
                NMic=       0 NMicF=      0.
                    Isotopes and Nuclear Properties:
 (Nuclear quadrupole moments (NQMom) in fm**2, nuclear magnetic moments (NMagM)
  in nuclear magnetons)

  Atom         1           2           3           4           5           6           7           8           9          10
 IAtWgt=          12          12          12           1           1          12           1           1          14           1
 AtmWgt=  12.0000000  12.0000000  12.0000000   1.0078250   1.0078250  12.0000000   1.0078250   1.0078250  14.0030740   1.0078250
 NucSpn=           0           0           0           1           1           0           1           1           2           1
 AtZEff=  -0.0000000  -0.0000000  -0.0000000  -0.0000000  -0.0000000  -0.0000000  -0.0000000  -0.0000000  -0.0000000  -0.0000000
 NQMom=    0.0000000   0.0000000   0.0000000   0.0000000   0.0000000   0.0000000   0.0000000   0.0000000   2.0440000   0.0000000
 NMagM=    0.0000000   0.0000000   0.0000000   2.7928460   2.7928460   0.0000000   2.7928460   2.7928460   0.4037610   2.7928460
 AtZNuc=   6.0000000   6.0000000   6.0000000   1.0000000   1.0000000   6.0000000   1.0000000   1.0000000   7.0000000   1.0000000

  Atom        11          12          13          14          15          16          17          18          19          20
 IAtWgt=           1           1           1          12           1           1           1          12          12           1
 AtmWgt=   1.0078250   1.0078250   1.0078250  12.0000000   1.0078250   1.0078250   1.0078250  12.0000000  12.0000000   1.0078250
 NucSpn=           1           1           1           0           1           1           1           0           0           1
 AtZEff=  -0.0000000  -0.0000000  -0.0000000  -0.0000000  -0.0000000  -0.0000000  -0.0000000  -0.0000000  -0.0000000  -0.0000000
 NQMom=    0.0000000   0.0000000   0.0000000   0.0000000   0.0000000   0.0000000   0.0000000   0.0000000   0.0000000   0.0000000
 NMagM=    2.7928460   2.7928460   2.7928460   0.0000000   2.7928460   2.7928460   2.7928460   0.0000000   0.0000000   2.7928460
 AtZNuc=   1.0000000   1.0000000   1.0000000   6.0000000   1.0000000   1.0000000   1.0000000   6.0000000   6.0000000   1.0000000

  Atom        21          22          23          24          25          26          27          28          29          30
 IAtWgt=           1          12           1           1          12           1           1           1           1           1
 AtmWgt=   1.0078250  12.0000000   1.0078250   1.0078250  12.0000000   1.0078250   1.0078250   1.0078250   1.0078250   1.0078250
 NucSpn=           1           0           1           1           0           1           1           1           1           1
 AtZEff=  -0.0000000  -0.0000000  -0.0000000  -0.0000000  -0.0000000  -0.0000000  -0.0000000  -0.0000000  -0.0000000  -0.0000000
 NQMom=    0.0000000   0.0000000   0.0000000   0.0000000   0.0000000   0.0000000   0.0000000   0.0000000   0.0000000   0.0000000
 NMagM=    2.7928460   0.0000000   2.7928460   2.7928460   0.0000000   2.7928460   2.7928460   2.7928460   2.7928460   2.7928460
 AtZNuc=   1.0000000   6.0000000   1.0000000   1.0000000   6.0000000   1.0000000   1.0000000   1.0000000   1.0000000   1.0000000
 Leave Link  101 at Mon Oct 31 15:21:52 2022, MaxMem=  8589934592 cpu:               1.5 elap:               0.1
 (Enter /usr/local/gaussian/g16a03/g16/l202.exe)
                          Input orientation:                          
 ---------------------------------------------------------------------
 Center     Atomic      Atomic             Coordinates (Angstroms)
 Number     Number       Type             X           Y           Z
 ---------------------------------------------------------------------
      1          6           0       -2.023100   -4.181370   -2.295280
      2          6           0       -1.517020   -4.484350   -0.896750
      3          6           0       -0.007880   -4.350610   -1.052710
      4          1           0       -1.783590   -5.498310   -0.597800
      5          1           0       -1.941130   -3.798110   -0.168910
      6          6           0        0.238680   -5.058100   -2.369770
      7          1           0        0.554270   -4.814530   -0.246800
      8          1           0        0.288520   -3.302310   -1.106630
      9          7           0       -0.941450   -4.685690   -3.258510
     10          1           0        0.218480   -6.136280   -2.239180
     11          1           0        1.159540   -4.782980   -2.872310
     12          1           0       -2.121500   -3.111160   -2.456200
     13          1           0       -2.964590   -4.658320   -2.546310
     14          6           0       -0.550670   -3.590720   -4.189180
     15          1           0        0.237020   -3.939120   -4.848940
     16          1           0       -0.190920   -2.748190   -3.604960
     17          1           0       -1.419560   -3.292440   -4.770680
     18          6           0       -1.488320   -5.869650   -4.031460
     19          6           0       -0.639690   -6.436170   -5.158150
     20          1           0       -2.434880   -5.527090   -4.446430
     21          1           0       -1.704530   -6.631030   -3.282040
     22          6           0        0.703790   -7.069960   -4.807720
     23          1           0       -0.510400   -5.691870   -5.946150
     24          1           0       -1.276150   -7.205980   -5.602120
     25          6           0        1.292890   -7.817080   -5.997550
     26          1           0        0.577120   -7.759760   -3.969060
     27          1           0        1.415730   -6.308690   -4.483040
     28          1           0        0.633830   -8.624360   -6.317420
     29          1           0        2.257680   -8.252660   -5.745500
     30          1           0        1.439730   -7.148860   -6.846840
 ---------------------------------------------------------------------
                    Distance matrix (angstroms):
                    1          2          3          4          5
     1  C    0.000000
     2  C    1.517827   0.000000
     3  C    2.373549   1.523061   0.000000
     4  H    2.161743   1.090204   2.162708   0.000000
     5  H    2.162188   1.086529   2.196318   1.760524   0.000000
     6  C    2.426902   2.362511   1.515249   2.724562   3.344089
     7  H    3.352611   2.195836   1.086612   2.460964   2.695589
     8  H    2.743943   2.168235   1.090731   3.061856   2.469104
     9  N    1.533661   2.439207   2.418550   2.906704   3.366420
    10  H    2.974811   2.746443   2.155822   2.666349   3.796969
    11  H    3.289999   3.340058   2.204713   3.787758   4.229952
    12  H    1.086705   2.164008   2.823723   3.044063   2.395022
    13  H    1.084851   2.201539   3.326809   2.428381   2.727538
    14  C    2.470582   3.545772   3.272537   4.249353   4.258986
    15  H    3.418773   4.358181   3.826312   4.958440   5.164001
    16  H    2.669485   3.479539   3.019145   4.375245   3.996499
    17  H    2.698530   4.054316   4.115321   4.734058   4.658758
    18  C    2.480040   3.427286   3.656793   3.466280   4.406314
    19  C    3.897944   4.768526   4.647944   4.794255   5.791858
    20  H    2.570597   3.811824   4.334947   3.903455   4.640080
    21  H    2.660078   3.214499   3.612319   2.914524   4.215803
    22  C    4.700238   5.187780   4.690569   5.136202   6.262520
    23  H    4.230688   5.288462   5.098751   5.501211   6.245784
    24  H    4.543280   5.441121   5.518947   5.311954   6.447910
    25  C    6.158001   6.709757   6.177367   6.633153   7.783576
    26  H    4.729435   4.955080   4.524337   4.696009   6.039652
    27  H    4.597536   4.979028   4.198560   5.097789   6.015251
    28  H    6.555688   7.151888   6.811307   6.951990   8.229659
    29  H    6.841381   7.208252   6.510072   7.100502   8.280784
    30  H    6.443127   7.158600   6.595280   7.222507   8.200761
                    6          7          8          9         10
     6  C    0.000000
     7  H    2.160075   0.000000
     8  H    2.163517   1.759756   0.000000
     9  N    1.523566   3.365141   2.838513   0.000000
    10  H    1.086248   2.414406   3.052697   2.118651   0.000000
    11  H    1.084537   2.694559   2.463470   2.138405   1.765749
    12  H    3.060800   3.865574   2.768768   2.124939   3.830660
    13  H    3.232944   4.206486   3.807120   2.145011   3.522872
    14  C    2.467089   4.273285   3.207730   1.489233   3.297570
    15  H    2.720001   4.695390   3.796454   2.115568   3.411554
    16  H    2.654418   4.012768   2.603568   2.106473   3.675883
    17  H    3.410525   5.165100   4.042635   2.111017   4.144767
    18  C    2.530288   4.428217   4.278204   1.516008   2.489282
    19  C    3.231977   5.308165   5.205523   2.600744   3.057250
    20  H    3.417659   5.203811   4.849827   2.085531   3.504766
    21  H    2.661280   4.196967   4.448037   2.089783   2.242833
    22  C    3.194919   5.090316   5.297707   3.285059   2.775731
    23  H    3.708541   5.863944   5.456118   2.902001   3.803997
    24  H    4.166075   6.144015   6.155994   3.457802   3.832433
    25  C    4.678046   6.529318   6.731494   4.722311   4.254972
    26  H    3.157727   4.746591   5.305248   3.501549   2.399332
    27  H    2.723111   4.573878   4.659299   3.112860   2.549125
    28  H    5.334632   7.167535   7.456258   5.229872   4.795321
    29  H    5.067260   6.705076   7.064182   5.398410   4.575115
    30  H    5.085072   7.056463   7.005087   4.961183   4.873120
                   11         12         13         14         15
    11  H    0.000000
    12  H    3.705854   0.000000
    13  H    4.138872   1.764263   0.000000
    14  C    2.465857   2.387615   3.108987   0.000000
    15  H    2.338848   3.460251   4.008698   1.084952   0.000000
    16  H    2.549684   2.275640   3.530238   1.086550   1.774523
    17  H    3.532319   2.425366   3.033244   1.087236   1.780050
    18  C    3.087984   3.239078   2.419166   2.469329   2.715146
    19  C    3.345942   4.533430   3.922706   3.007227   2.664487
    20  H    3.993921   3.145781   2.155414   2.714029   3.134121
    21  H    3.433084   3.639418   2.453698   3.376060   3.670309
    22  C    3.030478   5.402222   4.938319   3.749850   3.165712
    23  H    3.614315   4.629844   4.318586   2.739233   2.198781
    24  H    4.388095   5.232493   4.321964   3.948775   3.678225
    25  C    4.357829   6.807709   6.325738   4.952881   4.180041
    26  H    3.225414   5.583975   4.918014   4.324495   3.935371
    27  H    2.233355   5.181146   5.065752   3.367558   2.671723
    28  H    5.186652   7.272980   6.549761   5.591956   4.925989
    29  H    4.636789   7.512106   7.101141   5.660622   4.847011
    30  H    4.633873   6.947165   6.640435   4.866745   3.967436
                   16         17         18         19         20
    16  H    0.000000
    17  H    1.778951   0.000000
    18  C    3.407149   2.682011   0.000000
    19  C    4.026784   3.262111   1.520049   0.000000
    20  H    3.669566   2.475818   1.088817   2.134404   0.000000
    21  H    4.179921   3.666530   1.089989   2.166020   1.762923
    22  C    4.574367   4.333549   2.616996   1.526247   3.515996
    23  H    3.774717   2.822333   2.157306   1.091624   2.445391
    24  H    5.003825   4.003455   2.073106   1.093068   2.344557
    25  C    5.798261   5.416176   3.923407   2.519200   4.641799
    26  H    5.083138   4.958455   2.800438   2.155563   3.779529
    27  H    4.003687   4.149623   2.971563   2.167205   3.929305
    28  H    6.524341   5.919306   4.161437   2.784589   4.744541
    29  H    6.393492   6.251092   4.759116   3.469779   5.580003
    30  H    5.703920   5.230483   4.258664   2.771929   4.837841
                   21         22         23         24         25
    21  H    0.000000
    22  C    2.884504   0.000000
    23  H    3.066831   2.160882   0.000000
    24  H    2.428343   2.137694   1.731259   0.000000
    25  C    4.214883   1.523457   2.787654   2.670164   0.000000
    26  H    2.636656   1.093261   3.060679   2.531436   2.151833
    27  H    3.358917   1.091699   2.496224   3.050195   2.141044
    28  H    4.319123   2.168006   3.169637   2.484246   1.090127
    29  H    4.939375   2.166284   3.776264   3.688367   1.088154
    30  H    4.781456   2.169296   2.595587   2.988075   1.090584
                   26         27         28         29         30
    26  H    0.000000
    27  H    1.753011   0.000000
    28  H    2.503107   3.055920   0.000000
    29  H    2.494588   2.466111   1.761290   0.000000
    30  H    3.065765   2.508787   1.762629   1.760786   0.000000
 Stoichiometry    C9H20N(1+)
 Framework group  C1[X(C9H20N)]
 Deg. of freedom    84
 Full point group                 C1      NOp   1
 Largest Abelian subgroup         C1      NOp   1
 Largest concise Abelian subgroup C1      NOp   1
                         Standard orientation:                         
 ---------------------------------------------------------------------
 Center     Atomic      Atomic             Coordinates (Angstroms)
 Number     Number       Type             X           Y           Z
 ---------------------------------------------------------------------
      1          6           0        2.068148   -0.836663   -0.439403
      2          6           0        2.764771    0.478088   -0.739315
      3          6           0        2.224295    1.396812    0.348594
      4          1           0        2.488263    0.848413   -1.726709
      5          1           0        3.845029    0.364149   -0.714722
      6          6           0        0.752388    1.037353    0.364768
      7          1           0        2.368087    2.452612    0.135668
      8          1           0        2.693086    1.182873    1.309925
      9          7           0        0.699480   -0.469681    0.147274
     10          1           0        0.231460    1.503279   -0.466785
     11          1           0        0.231646    1.279626    1.284742
     12          1           0        2.601338   -1.401484    0.320605
     13          1           0        1.918126   -1.474004   -1.304384
     14          6           0        0.511614   -1.164642    1.450942
     15          1           0       -0.443141   -0.879203    1.879999
     16          1           0        1.314875   -0.871554    2.121361
     17          1           0        0.540819   -2.239135    1.287559
     18          6           0       -0.379821   -0.881614   -0.834408
     19          6           0       -1.828647   -0.754423   -0.392509
     20          1           0       -0.175222   -1.926590   -1.061755
     21          1           0       -0.191553   -0.297435   -1.735167
     22          6           0       -2.382049    0.639422   -0.109008
     23          1           0       -2.026607   -1.416786    0.452316
     24          1           0       -2.393385   -1.184638   -1.223644
     25          6           0       -3.896189    0.612867    0.057110
     26          1           0       -2.115685    1.313982   -0.927078
     27          1           0       -1.936118    1.053842    0.797198
     28          1           0       -4.382792    0.255715   -0.850656
     29          1           0       -4.281971    1.606786    0.274771
     30          1           0       -4.189676   -0.045886    0.875208
 ---------------------------------------------------------------------
 Rotational constants (GHZ):           2.4796908           0.7142451           0.6647787
 Leave Link  202 at Mon Oct 31 15:21:52 2022, MaxMem=  8589934592 cpu:               1.3 elap:               0.1
 (Enter /usr/local/gaussian/g16a03/g16/l301.exe)
 General basis read from cards:  (5D, 7F)
 Centers:       4      5      7      8     10     11     12     13     15     16
 Centers:      17     20     21     23     24     26     27     28     29     30
 S 4 1.00
     Exponent=  3.3685014000D+01 Coefficients=  6.0680000000D-03
     Exponent=  5.0947880000D+00 Coefficients=  4.5316000000D-02
     Exponent=  1.1587860000D+00 Coefficients=  2.0284600000D-01
     Exponent=  3.2584000000D-01 Coefficients=  5.0370900000D-01
 S 1 1.00
     Exponent=  1.0274100000D-01 Coefficients=  1.0000000000D+00
 S 1 1.00
     Exponent=  3.2400000000D-02 Coefficients=  1.0000000000D+00
 P 2 1.00
     Exponent=  1.1588000000D+00 Coefficients=  1.8844000000D-01
     Exponent=  3.2580000000D-01 Coefficients=  8.8242000000D-01
 P 2 1.00
     Exponent=  1.0270000000D-01 Coefficients=  1.1780000000D-01
     Exponent=  3.2400000000D-02 Coefficients=  4.2000000000D-03
 ****
 Centers:       1      2      3      6     14     18     19     22     25
 S 5 1.00
     Exponent=  5.2406353000D+03 Coefficients=  9.3700000000D-04
     Exponent=  7.8220480000D+02 Coefficients=  7.2280000000D-03
     Exponent=  1.7835083000D+02 Coefficients=  3.6344000000D-02
     Exponent=  5.0815942000D+01 Coefficients=  1.3060000000D-01
     Exponent=  1.6823562000D+01 Coefficients=  3.1893100000D-01
 S 2 1.00
     Exponent=  6.1757760000D+00 Coefficients=  4.3874200000D-01
     Exponent=  2.4180490000D+00 Coefficients=  2.1497400000D-01
 S 1 1.00
     Exponent=  5.1190000000D-01 Coefficients=  1.0000000000D+00
 S 1 1.00
     Exponent=  1.5659000000D-01 Coefficients=  1.0000000000D+00
 S 1 1.00
     Exponent=  4.7900000000D-02 Coefficients=  1.0000000000D+00
 P 4 1.00
     Exponent=  1.8841800000D+01 Coefficients=  1.3887000000D-02
     Exponent=  4.1592400000D+00 Coefficients=  8.6279000000D-02
     Exponent=  1.2067100000D+00 Coefficients=  2.8874400000D-01
     Exponent=  3.8554000000D-01 Coefficients=  4.9941100000D-01
 P 1 1.00
     Exponent=  1.2194000000D-01 Coefficients=  1.0000000000D+00
 P 1 1.00
     Exponent=  3.8568000000D-02 Coefficients=  1.0000000000D+00
 D 2 1.00
     Exponent=  1.2067100000D+00 Coefficients=  2.6285200000D-01
     Exponent=  3.8554000000D-01 Coefficients=  8.0430000000D-01
 D 2 1.00
     Exponent=  1.2194000000D-01 Coefficients=  6.5350000000D-01
     Exponent=  3.8658000000D-02 Coefficients=  8.6360000000D-01
 ****
 Centers:       9
 S 5 1.00
     Exponent=  8.1040716000D+03 Coefficients=  8.0200000000D-04
     Exponent=  1.2160215000D+03 Coefficients=  6.1740000000D-03
     Exponent=  2.7723428000D+02 Coefficients=  3.1233000000D-02
     Exponent=  7.6904023000D+01 Coefficients=  1.1519800000D-01
     Exponent=  2.5874419000D+01 Coefficients=  2.9695100000D-01
 S 2 1.00
     Exponent=  9.3467670000D+00 Coefficients=  4.4734900000D-01
     Exponent=  3.5797940000D+00 Coefficients=  2.4500300000D-01
 S 1 1.00
     Exponent=  7.3961000000D-01 Coefficients=  1.0000000000D+00
 S 1 1.00
     Exponent=  2.2261700000D-01 Coefficients=  1.0000000000D+00
 S 1 1.00
     Exponent=  6.7006000000D-02 Coefficients=  1.0000000000D+00
 P 4 1.00
     Exponent=  2.6868987000D+01 Coefficients=  1.4478000000D-02
     Exponent=  5.9912270000D+00 Coefficients=  9.1156000000D-02
     Exponent=  1.7508420000D+00 Coefficients=  2.9742000000D-01
     Exponent=  5.6051100000D-01 Coefficients=  4.9379600000D-01
 P 1 1.00
     Exponent=  1.7594800000D-01 Coefficients=  1.0000000000D+00
 P 1 1.00
     Exponent=  5.5231000000D-02 Coefficients=  1.0000000000D+00
 D 2 1.00
     Exponent=  1.7508420000D+00 Coefficients=  2.2477400000D-01
     Exponent=  5.6051100000D-01 Coefficients=  6.5956200000D-01
 D 2 1.00
     Exponent=  1.7594800000D-01 Coefficients=  8.7135500000D-01
     Exponent=  5.5231000000D-02 Coefficients=  7.0421700000D-01
 ****
 Ernie: Thresh=  0.10000D-02 Tol=  0.10000D-05 Strict=F.
 The following finite field(s) will be applied:
 An electric field of              0.0000  0.0008  0.0000
 In input orientation:  5.63388156D-04 -2.97680080D-04  4.83715160D-04
 There are   440 symmetry adapted cartesian basis functions of A   symmetry.
 There are   420 symmetry adapted basis functions of A   symmetry.
   420 basis functions,   880 primitive gaussians,   440 cartesian basis functions
    40 alpha electrons       40 beta electrons
       nuclear repulsion energy       604.8043466459 Hartrees.
 IExCor= 4336 DFT=T Ex+Corr=M062X ExCW=0 ScaHFX=  0.540000
 ScaDFX=  1.000000  1.000000  1.000000  1.000000 ScalE2=  1.000000  1.000000
 IRadAn=      5 IRanWt=     -1 IRanGd=            0 ICorTp=0 IEmpDi=  4
 NAtoms=   30 NActive=   30 NUniq=   30 SFac= 1.00D+00 NAtFMM=   60 NAOKFM=F Big=F
 Integral buffers will be    131072 words long.
 Raffenetti 2 integral format.
 Two-electron integral symmetry is turned on.
 Leave Link  301 at Mon Oct 31 15:21:52 2022, MaxMem=  8589934592 cpu:               1.6 elap:               0.1
 (Enter /usr/local/gaussian/g16a03/g16/l302.exe)
 NPDir=0 NMtPBC=     1 NCelOv=     1 NCel=       1 NClECP=     1 NCelD=      1
         NCelK=      1 NCelE2=     1 NClLst=     1 CellRange=     0.0.
 One-electron integrals computed using PRISM.
 One-electron integral symmetry used in STVInt
 NBasis=   420 RedAO= T EigKep=  2.49D-06  NBF=   420
 NBsUse=   420 1.00D-06 EigRej= -1.00D+00 NBFU=   420
 Precomputing XC quadrature grid using
 IXCGrd= 4 IRadAn=           5 IRanWt=          -1 IRanGd=           0 AccXCQ= 0.00D+00.
 Generated NRdTot=       0 NPtTot=           0 NUsed=           0 NTot=          32
 NSgBfM=   438   438   438   438   438 MxSgAt=    30 MxSgA2=    30.
 Leave Link  302 at Mon Oct 31 15:21:53 2022, MaxMem=  8589934592 cpu:               6.2 elap:               0.4
 (Enter /usr/local/gaussian/g16a03/g16/l303.exe)
 DipDrv:  MaxL=1.
 The nuclear repulsion energy is now       604.8043466459 hartrees.
 Leave Link  303 at Mon Oct 31 15:21:53 2022, MaxMem=  8589934592 cpu:               1.0 elap:               0.1
 (Enter /usr/local/gaussian/g16a03/g16/l401.exe)
 ExpMin= 3.24D-02 ExpMax= 8.10D+03 ExpMxC= 1.22D+03 IAcc=3 IRadAn=         5 AccDes= 0.00D+00
 Harris functional with IExCor= 1009 and IRadAn=       5 diagonalized for initial guess.
 HarFok:  IExCor= 1009 AccDes= 0.00D+00 IRadAn=         5 IDoV= 1 UseB2=F ITyADJ=14
 ICtDFT=  3500011 ScaDFX=  1.000000  1.000000  1.000000  1.000000
 FoFCou: FMM=F IPFlag=           0 FMFlag=      100000 FMFlg1=           0
         NFxFlg=           0 DoJE=T BraDBF=F KetDBF=T FulRan=T
         wScrn=  0.000000 ICntrl=       500 IOpCl=  0 I1Cent=   200000004 NGrid=           0
         NMat0=    1 NMatS0=      1 NMatT0=    0 NMatD0=    1 NMtDS0=    0 NMtDT0=    0
 Petite list used in FoFCou.
 Harris En= -409.287268237835    
 JPrj=0 DoOrth=F DoCkMO=F.
 Leave Link  401 at Mon Oct 31 15:21:55 2022, MaxMem=  8589934592 cpu:              27.8 elap:               1.8
 (Enter /usr/local/gaussian/g16a03/g16/l502.exe)
 Integral symmetry usage will be decided dynamically.
 Closed shell SCF:
 Using DIIS extrapolation, IDIIS=  1040.
 NGot=  8589934592 LenX=  8589535990 LenY=  8589341949
 Requested convergence on RMS density matrix=1.00D-08 within 128 cycles.
 Requested convergence on MAX density matrix=1.00D-06.
 Requested convergence on             energy=1.00D-06.
 No special actions if energy rises.
 Fock matrices will be formed incrementally for  20 cycles.

 Cycle   1  Pass 1  IDiag  1:
 FoFJK:  IHMeth= 1 ICntrl=       0 DoSepK=F KAlg= 0 I1Cent=           0 FoldK=F
 IRaf= 990000000 NMat=       1 IRICut=       1 DoRegI=T DoRafI=F ISym2E= 0 IDoP0=0 IntGTp=1.
 FoFCou: FMM=F IPFlag=           0 FMFlag=      100000 FMFlg1=           0
         NFxFlg=           0 DoJE=F BraDBF=F KetDBF=F FulRan=T
         wScrn=  0.000000 ICntrl=         0 IOpCl=  0 I1Cent=           0 NGrid=           0
         NMat0=    1 NMatS0=      1 NMatT0=    0 NMatD0=    1 NMtDS0=    0 NMtDT0=    0
 Symmetry not used in FoFCou.
 E= -409.085292892055    
 DIIS: error= 1.69D-02 at cycle   1 NSaved=   1.
 NSaved= 1 IEnMin= 1 EnMin= -409.085292892055     IErMin= 1 ErrMin= 1.69D-02
 ErrMax= 1.69D-02  0.00D+00 EMaxC= 1.00D-01 BMatC= 3.49D-01 BMatP= 3.49D-01
 IDIUse=3 WtCom= 8.31D-01 WtEn= 1.69D-01
 Coeff-Com:  0.100D+01
 Coeff-En:   0.100D+01
 Coeff:      0.100D+01
 Gap=     0.411 Goal=   None    Shift=    0.000
 GapD=    0.411 DampG=2.000 DampE=0.500 DampFc=1.0000 IDamp=-1.
 RMSDP=8.48D-02 MaxDP=4.72D+00              OVMax= 1.48D-01

 Cycle   2  Pass 1  IDiag  1:
 RMSU=  2.47D-02    CP:  5.94D-01
 E= -409.153628867505     Delta-E=       -0.068335975450 Rises=F Damp=F
 DIIS: error= 1.37D-02 at cycle   2 NSaved=   2.
 NSaved= 2 IEnMin= 2 EnMin= -409.153628867505     IErMin= 2 ErrMin= 1.37D-02
 ErrMax= 1.37D-02  0.00D+00 EMaxC= 1.00D-01 BMatC= 2.69D-01 BMatP= 3.49D-01
 IDIUse=3 WtCom= 8.63D-01 WtEn= 1.37D-01
 Coeff-Com:  0.464D+00 0.536D+00
 Coeff-En:   0.432D+00 0.568D+00
 Coeff:      0.460D+00 0.540D+00
 Gap=     0.415 Goal=   None    Shift=    0.000
 RMSDP=2.53D-02 MaxDP=1.52D+00 DE=-6.83D-02 OVMax= 7.24D-02

 Cycle   3  Pass 1  IDiag  1:
 RMSU=  9.26D-03    CP:  7.07D-01  7.11D-01
 E= -409.397004086197     Delta-E=       -0.243375218692 Rises=F Damp=F
 DIIS: error= 3.58D-03 at cycle   3 NSaved=   3.
 NSaved= 3 IEnMin= 3 EnMin= -409.397004086197     IErMin= 3 ErrMin= 3.58D-03
 ErrMax= 3.58D-03  0.00D+00 EMaxC= 1.00D-01 BMatC= 8.17D-03 BMatP= 2.69D-01
 IDIUse=3 WtCom= 9.64D-01 WtEn= 3.58D-02
 Coeff-Com:  0.978D-01 0.185D+00 0.718D+00
 Coeff-En:   0.000D+00 0.000D+00 0.100D+01
 Coeff:      0.943D-01 0.178D+00 0.728D+00
 Gap=     0.398 Goal=   None    Shift=    0.000
 RMSDP=4.15D-03 MaxDP=3.81D-01 DE=-2.43D-01 OVMax= 1.88D-02

 Cycle   4  Pass 1  IDiag  1:
 RMSU=  2.21D-03    CP:  7.24D-01  7.43D-01  9.61D-01
 E= -409.402287603338     Delta-E=       -0.005283517141 Rises=F Damp=F
 DIIS: error= 1.24D-03 at cycle   4 NSaved=   4.
 NSaved= 4 IEnMin= 4 EnMin= -409.402287603338     IErMin= 4 ErrMin= 1.24D-03
 ErrMax= 1.24D-03  0.00D+00 EMaxC= 1.00D-01 BMatC= 1.63D-03 BMatP= 8.17D-03
 IDIUse=3 WtCom= 9.88D-01 WtEn= 1.24D-02
 Coeff-Com:  0.663D-02 0.379D-01 0.358D+00 0.598D+00
 Coeff-En:   0.000D+00 0.000D+00 0.127D+00 0.873D+00
 Coeff:      0.655D-02 0.374D-01 0.355D+00 0.601D+00
 Gap=     0.395 Goal=   None    Shift=    0.000
 RMSDP=1.11D-03 MaxDP=4.46D-02 DE=-5.28D-03 OVMax= 5.91D-03

 Cycle   5  Pass 1  IDiag  1:
 RMSU=  1.09D-03    CP:  7.24D-01  7.50D-01  9.65D-01  9.98D-01
 E= -409.403685373715     Delta-E=       -0.001397770377 Rises=F Damp=F
 DIIS: error= 1.64D-04 at cycle   5 NSaved=   5.
 NSaved= 5 IEnMin= 5 EnMin= -409.403685373715     IErMin= 5 ErrMin= 1.64D-04
 ErrMax= 1.64D-04  0.00D+00 EMaxC= 1.00D-01 BMatC= 3.44D-05 BMatP= 1.63D-03
 IDIUse=3 WtCom= 9.98D-01 WtEn= 1.64D-03
 Coeff-Com: -0.255D-02 0.232D-02 0.749D-01 0.197D+00 0.728D+00
 Coeff-En:   0.000D+00 0.000D+00 0.000D+00 0.000D+00 0.100D+01
 Coeff:     -0.255D-02 0.231D-02 0.747D-01 0.197D+00 0.728D+00
 Gap=     0.396 Goal=   None    Shift=    0.000
 RMSDP=2.52D-04 MaxDP=3.95D-02 DE=-1.40D-03 OVMax= 1.00D-03

 Cycle   6  Pass 1  IDiag  1:
 RMSU=  1.90D-04    CP:  7.24D-01  7.52D-01  9.75D-01  1.01D+00  9.46D-01
 E= -409.403717227832     Delta-E=       -0.000031854117 Rises=F Damp=F
 DIIS: error= 3.01D-05 at cycle   6 NSaved=   6.
 NSaved= 6 IEnMin= 6 EnMin= -409.403717227832     IErMin= 6 ErrMin= 3.01D-05
 ErrMax= 3.01D-05  0.00D+00 EMaxC= 1.00D-01 BMatC= 2.28D-06 BMatP= 3.44D-05
 IDIUse=1 WtCom= 1.00D+00 WtEn= 0.00D+00
 Coeff-Com: -0.121D-02-0.143D-02 0.761D-02 0.376D-01 0.252D+00 0.705D+00
 Coeff:     -0.121D-02-0.143D-02 0.761D-02 0.376D-01 0.252D+00 0.705D+00
 Gap=     0.396 Goal=   None    Shift=    0.000
 RMSDP=8.41D-05 MaxDP=3.71D-03 DE=-3.19D-05 OVMax= 2.53D-04

 Cycle   7  Pass 1  IDiag  1:
 RMSU=  7.65D-05    CP:  7.24D-01  7.53D-01  9.76D-01  1.02D+00  9.59D-01
                    CP:  9.46D-01
 E= -409.403719276785     Delta-E=       -0.000002048953 Rises=F Damp=F
 DIIS: error= 9.60D-06 at cycle   7 NSaved=   7.
 NSaved= 7 IEnMin= 7 EnMin= -409.403719276785     IErMin= 7 ErrMin= 9.60D-06
 ErrMax= 9.60D-06  0.00D+00 EMaxC= 1.00D-01 BMatC= 1.80D-07 BMatP= 2.28D-06
 IDIUse=1 WtCom= 1.00D+00 WtEn= 0.00D+00
 Coeff-Com: -0.292D-04-0.802D-03-0.654D-02-0.123D-01-0.693D-02 0.218D+00
 Coeff-Com:  0.809D+00
 Coeff:     -0.292D-04-0.802D-03-0.654D-02-0.123D-01-0.693D-02 0.218D+00
 Coeff:      0.809D+00
 Gap=     0.396 Goal=   None    Shift=    0.000
 RMSDP=3.71D-05 MaxDP=1.74D-03 DE=-2.05D-06 OVMax= 8.34D-05

 Cycle   8  Pass 1  IDiag  1:
 RMSU=  2.02D-05    CP:  7.24D-01  7.53D-01  9.76D-01  1.03D+00  9.82D-01
                    CP:  1.00D+00  1.05D+00
 E= -409.403719477517     Delta-E=       -0.000000200733 Rises=F Damp=F
 DIIS: error= 1.41D-06 at cycle   8 NSaved=   8.
 NSaved= 8 IEnMin= 8 EnMin= -409.403719477517     IErMin= 8 ErrMin= 1.41D-06
 ErrMax= 1.41D-06  0.00D+00 EMaxC= 1.00D-01 BMatC= 3.40D-09 BMatP= 1.80D-07
 IDIUse=1 WtCom= 1.00D+00 WtEn= 0.00D+00
 Coeff-Com:  0.265D-04-0.136D-03-0.155D-02-0.353D-02-0.902D-02 0.160D-01
 Coeff-Com:  0.145D+00 0.854D+00
 Coeff:      0.265D-04-0.136D-03-0.155D-02-0.353D-02-0.902D-02 0.160D-01
 Coeff:      0.145D+00 0.854D+00
 Gap=     0.396 Goal=   None    Shift=    0.000
 RMSDP=5.68D-06 MaxDP=2.70D-04 DE=-2.01D-07 OVMax= 1.49D-05

 Cycle   9  Pass 1  IDiag  1:
 RMSU=  4.01D-06    CP:  7.24D-01  7.53D-01  9.76D-01  1.03D+00  9.84D-01
                    CP:  1.01D+00  1.08D+00  1.03D+00
 E= -409.403719481335     Delta-E=       -0.000000003817 Rises=F Damp=F
 DIIS: error= 6.05D-07 at cycle   9 NSaved=   9.
 NSaved= 9 IEnMin= 9 EnMin= -409.403719481335     IErMin= 9 ErrMin= 6.05D-07
 ErrMax= 6.05D-07  0.00D+00 EMaxC= 1.00D-01 BMatC= 5.55D-10 BMatP= 3.40D-09
 IDIUse=1 WtCom= 1.00D+00 WtEn= 0.00D+00
 Coeff-Com:  0.994D-05 0.297D-05-0.110D-03-0.393D-03-0.266D-02-0.959D-02
 Coeff-Com: -0.658D-02 0.298D+00 0.721D+00
 Coeff:      0.994D-05 0.297D-05-0.110D-03-0.393D-03-0.266D-02-0.959D-02
 Coeff:     -0.658D-02 0.298D+00 0.721D+00
 Gap=     0.396 Goal=   None    Shift=    0.000
 RMSDP=1.60D-06 MaxDP=1.01D-04 DE=-3.82D-09 OVMax= 4.66D-06

 Cycle  10  Pass 1  IDiag  1:
 RMSU=  9.54D-07    CP:  7.24D-01  7.53D-01  9.76D-01  1.03D+00  9.85D-01
                    CP:  1.01D+00  1.08D+00  1.07D+00  9.18D-01
 E= -409.403719481885     Delta-E=       -0.000000000550 Rises=F Damp=F
 DIIS: error= 1.48D-07 at cycle  10 NSaved=  10.
 NSaved=10 IEnMin=10 EnMin= -409.403719481885     IErMin=10 ErrMin= 1.48D-07
 ErrMax= 1.48D-07  0.00D+00 EMaxC= 1.00D-01 BMatC= 4.31D-11 BMatP= 5.55D-10
 IDIUse=1 WtCom= 1.00D+00 WtEn= 0.00D+00
 Coeff-Com:  0.144D-05 0.105D-04 0.734D-04 0.121D-03-0.217D-03-0.440D-02
 Coeff-Com: -0.132D-01 0.426D-01 0.264D+00 0.711D+00
 Coeff:      0.144D-05 0.105D-04 0.734D-04 0.121D-03-0.217D-03-0.440D-02
 Coeff:     -0.132D-01 0.426D-01 0.264D+00 0.711D+00
 Gap=     0.396 Goal=   None    Shift=    0.000
 RMSDP=3.52D-07 MaxDP=1.58D-05 DE=-5.50D-10 OVMax= 1.29D-06

 Cycle  11  Pass 1  IDiag  1:
 RMSU=  2.96D-07    CP:  7.24D-01  7.53D-01  9.76D-01  1.03D+00  9.85D-01
                    CP:  1.01D+00  1.09D+00  1.07D+00  9.49D-01  9.88D-01
 E= -409.403719481940     Delta-E=       -0.000000000056 Rises=F Damp=F
 DIIS: error= 2.63D-08 at cycle  11 NSaved=  11.
 NSaved=11 IEnMin=11 EnMin= -409.403719481940     IErMin=11 ErrMin= 2.63D-08
 ErrMax= 2.63D-08  0.00D+00 EMaxC= 1.00D-01 BMatC= 1.08D-12 BMatP= 4.31D-11
 IDIUse=1 WtCom= 1.00D+00 WtEn= 0.00D+00
 Coeff-Com: -0.203D-07 0.244D-05 0.214D-04 0.421D-04 0.538D-04-0.615D-03
 Coeff-Com: -0.283D-02-0.200D-02 0.354D-01 0.173D+00 0.797D+00
 Coeff:     -0.203D-07 0.244D-05 0.214D-04 0.421D-04 0.538D-04-0.615D-03
 Coeff:     -0.283D-02-0.200D-02 0.354D-01 0.173D+00 0.797D+00
 Gap=     0.396 Goal=   None    Shift=    0.000
 RMSDP=1.89D-07 MaxDP=1.10D-05 DE=-5.59D-11 OVMax= 2.27D-07

 Cycle  12  Pass 1  IDiag  1:
 RMSU=  1.22D-07    CP:  7.24D-01  7.53D-01  9.76D-01  1.03D+00  9.85D-01
                    CP:  1.01D+00  1.09D+00  1.07D+00  9.59D-01  1.08D+00
                    CP:  1.29D+00
 E= -409.403719481913     Delta-E=        0.000000000028 Rises=F Damp=F
 DIIS: error= 7.29D-09 at cycle  12 NSaved=  12.
 NSaved=12 IEnMin=11 EnMin= -409.403719481940     IErMin=12 ErrMin= 7.29D-09
 ErrMax= 7.29D-09  0.00D+00 EMaxC= 1.00D-01 BMatC= 1.26D-13 BMatP= 1.08D-12
 IDIUse=1 WtCom= 1.00D+00 WtEn= 0.00D+00
 Coeff-Com: -0.974D-07-0.966D-07 0.174D-06 0.165D-05 0.276D-04 0.163D-03
 Coeff-Com:  0.194D-03-0.381D-02-0.100D-01-0.716D-02 0.228D+00 0.793D+00
 Coeff:     -0.974D-07-0.966D-07 0.174D-06 0.165D-05 0.276D-04 0.163D-03
 Coeff:      0.194D-03-0.381D-02-0.100D-01-0.716D-02 0.228D+00 0.793D+00
 Gap=     0.396 Goal=   None    Shift=    0.000
 RMSDP=1.37D-07 MaxDP=7.65D-06 DE= 2.76D-11 OVMax= 9.54D-08

 Cycle  13  Pass 1  IDiag  1:
 RMSU=  4.46D-08    CP:  7.24D-01  7.53D-01  9.76D-01  1.03D+00  9.85D-01
                    CP:  1.01D+00  1.09D+00  1.07D+00  9.66D-01  1.14D+00
                    CP:  1.55D+00  1.59D+00
 E= -409.403719481898     Delta-E=        0.000000000014 Rises=F Damp=F
 DIIS: error= 2.51D-09 at cycle  13 NSaved=  13.
 NSaved=13 IEnMin=11 EnMin= -409.403719481940     IErMin=13 ErrMin= 2.51D-09
 ErrMax= 2.51D-09  0.00D+00 EMaxC= 1.00D-01 BMatC= 2.12D-14 BMatP= 1.26D-13
 IDIUse=1 WtCom= 1.00D+00 WtEn= 0.00D+00
 Coeff-Com: -0.222D-07-0.249D-06-0.187D-05-0.330D-05 0.370D-05 0.112D-03
 Coeff-Com:  0.325D-03-0.105D-02-0.645D-02-0.184D-01-0.492D-02 0.241D+00
 Coeff-Com:  0.790D+00
 Coeff:     -0.222D-07-0.249D-06-0.187D-05-0.330D-05 0.370D-05 0.112D-03
 Coeff:      0.325D-03-0.105D-02-0.645D-02-0.184D-01-0.492D-02 0.241D+00
 Coeff:      0.790D+00
 Gap=     0.396 Goal=   None    Shift=    0.000
 RMSDP=1.02D-07 MaxDP=6.04D-06 DE= 1.44D-11 OVMax= 6.06D-08

 Cycle  14  Pass 1  IDiag  1:
 RMSU=  1.25D-08    CP:  7.24D-01  7.53D-01  9.76D-01  1.03D+00  9.85D-01
                    CP:  1.01D+00  1.09D+00  1.07D+00  9.71D-01  1.18D+00
                    CP:  1.72D+00  2.08D+00  1.61D+00
 E= -409.403719481908     Delta-E=       -0.000000000010 Rises=F Damp=F
 DIIS: error= 1.47D-09 at cycle  14 NSaved=  14.
 NSaved=14 IEnMin=11 EnMin= -409.403719481940     IErMin=14 ErrMin= 1.47D-09
 ErrMax= 1.47D-09  0.00D+00 EMaxC= 1.00D-01 BMatC= 6.01D-15 BMatP= 2.12D-14
 IDIUse=1 WtCom= 1.00D+00 WtEn= 0.00D+00
 Coeff-Com:  0.262D-07 0.523D-07 0.190D-06 0.439D-07-0.719D-05-0.532D-04
 Coeff-Com: -0.936D-04 0.102D-02 0.318D-02 0.418D-02-0.526D-01-0.212D+00
 Coeff-Com: -0.102D+00 0.136D+01
 Coeff:      0.262D-07 0.523D-07 0.190D-06 0.439D-07-0.719D-05-0.532D-04
 Coeff:     -0.936D-04 0.102D-02 0.318D-02 0.418D-02-0.526D-01-0.212D+00
 Coeff:     -0.102D+00 0.136D+01
 Gap=     0.396 Goal=   None    Shift=    0.000
 RMSDP=1.36D-07 MaxDP=8.07D-06 DE=-1.00D-11 OVMax= 7.78D-08

 Cycle  15  Pass 1  IDiag  1:
 RMSU=  5.71D-09    CP:  7.24D-01  7.53D-01  9.76D-01  1.03D+00  9.85D-01
                    CP:  1.01D+00  1.09D+00  1.07D+00  9.78D-01  1.24D+00
                    CP:  1.96D+00  2.73D+00  2.48D+00  2.07D+00
 E= -409.403719481934     Delta-E=       -0.000000000025 Rises=F Damp=F
 DIIS: error= 7.58D-10 at cycle  15 NSaved=  15.
 NSaved=15 IEnMin=11 EnMin= -409.403719481940     IErMin=15 ErrMin= 7.58D-10
 ErrMax= 7.58D-10  0.00D+00 EMaxC= 1.00D-01 BMatC= 1.76D-15 BMatP= 6.01D-15
 IDIUse=1 WtCom= 1.00D+00 WtEn= 0.00D+00
 Coeff-Com:  0.104D-07 0.108D-06 0.783D-06 0.135D-05-0.198D-05-0.534D-04
 Coeff-Com: -0.145D-03 0.563D-03 0.313D-02 0.843D-02-0.309D-02-0.128D+00
 Coeff-Com: -0.363D+00 0.109D+00 0.137D+01
 Coeff:      0.104D-07 0.108D-06 0.783D-06 0.135D-05-0.198D-05-0.534D-04
 Coeff:     -0.145D-03 0.563D-03 0.313D-02 0.843D-02-0.309D-02-0.128D+00
 Coeff:     -0.363D+00 0.109D+00 0.137D+01
 Gap=     0.396 Goal=   None    Shift=    0.000
 RMSDP=1.22D-07 MaxDP=7.29D-06 DE=-2.52D-11 OVMax= 6.95D-08

 Cycle  16  Pass 1  IDiag  1:
 RMSU=  3.98D-08    CP:  7.24D-01  7.53D-01  9.76D-01  1.03D+00  9.85D-01
                    CP:  1.01D+00  1.09D+00  1.07D+00  9.84D-01  1.29D+00
                    CP:  2.17D+00  3.00D+00  3.00D+00  3.00D+00  1.67D+00
 E= -409.403719481913     Delta-E=        0.000000000021 Rises=F Damp=F
 DIIS: error= 1.88D-10 at cycle  16 NSaved=  16.
 NSaved=16 IEnMin=11 EnMin= -409.403719481940     IErMin=16 ErrMin= 1.88D-10
 ErrMax= 1.88D-10  0.00D+00 EMaxC= 1.00D-01 BMatC= 1.27D-16 BMatP= 1.76D-15
 IDIUse=1 WtCom= 1.00D+00 WtEn= 0.00D+00
 Large coefficients: NSaved= 16 BigCof=    0.00 CofMax=   10.00 Det=-3.31D-16
 Inversion failed.  Reducing to 15 matrices.
 Coeff-Com:  0.126D-07 0.884D-07 0.157D-06 0.419D-06-0.288D-05-0.116D-04
 Coeff-Com: -0.135D-04 0.156D-03 0.870D-03 0.611D-02 0.276D-02-0.516D-01
 Coeff-Com: -0.162D+00 0.251D+00 0.953D+00
 Coeff:      0.126D-07 0.884D-07 0.157D-06 0.419D-06-0.288D-05-0.116D-04
 Coeff:     -0.135D-04 0.156D-03 0.870D-03 0.611D-02 0.276D-02-0.516D-01
 Coeff:     -0.162D+00 0.251D+00 0.953D+00
 Gap=     0.396 Goal=   None    Shift=    0.000
 RMSDP=2.48D-08 MaxDP=1.47D-06 DE= 2.10D-11 OVMax= 1.41D-08

 Cycle  17  Pass 1  IDiag  1:
 RMSU=  3.40D-09    CP:  7.24D-01  7.53D-01  9.76D-01  1.03D+00  9.85D-01
                    CP:  1.01D+00  1.09D+00  1.07D+00  9.86D-01  1.30D+00
                    CP:  2.21D+00  3.00D+00  3.00D+00  3.00D+00  1.86D+00
                    CP:  1.40D+00
 E= -409.403719481917     Delta-E=       -0.000000000005 Rises=F Damp=F
 DIIS: error= 1.05D-10 at cycle  17 NSaved=  16.
 NSaved=16 IEnMin=10 EnMin= -409.403719481940     IErMin=16 ErrMin= 1.05D-10
 ErrMax= 1.05D-10  0.00D+00 EMaxC= 1.00D-01 BMatC= 1.68D-17 BMatP= 1.27D-16
 IDIUse=1 WtCom= 1.00D+00 WtEn= 0.00D+00
 Large coefficients: NSaved= 16 BigCof=    0.00 CofMax=   10.00 Det=-9.46D-17
 Inversion failed.  Reducing to 15 matrices.
 Coeff-Com: -0.250D-08-0.709D-08 0.271D-06 0.194D-05 0.343D-05-0.418D-04
 Coeff-Com: -0.138D-03-0.211D-03 0.254D-02 0.966D-02 0.710D-02-0.663D-01
 Coeff-Com: -0.118D-01 0.346D+00 0.713D+00
 Coeff:     -0.250D-08-0.709D-08 0.271D-06 0.194D-05 0.343D-05-0.418D-04
 Coeff:     -0.138D-03-0.211D-03 0.254D-02 0.966D-02 0.710D-02-0.663D-01
 Coeff:     -0.118D-01 0.346D+00 0.713D+00
 Gap=     0.396 Goal=   None    Shift=    0.000
 RMSDP=2.95D-09 MaxDP=1.69D-07 DE=-4.55D-12 OVMax= 1.74D-09

 SCF Done:  E(RM062X) =  -409.403719482     A.U. after   17 cycles
            NFock= 17  Conv=0.30D-08     -V/T= 2.0063
 KE= 4.068481684480D+02 PE=-2.142990520134D+03 EE= 7.219342855578D+02
 Leave Link  502 at Mon Oct 31 15:25:37 2022, MaxMem=  8589934592 cpu:            3547.3 elap:             222.3
 (Enter /usr/local/gaussian/g16a03/g16/l801.exe)
 DoSCS=F DFT=T ScalE2(SS,OS)=  1.000000  1.000000
 Range of M.O.s used for correlation:     1   420
 NBasis=   420 NAE=    40 NBE=    40 NFC=     0 NFV=     0
 NROrb=    420 NOA=    40 NOB=    40 NVA=   380 NVB=   380

 **** Warning!!: The largest alpha MO coefficient is  0.10020927D+03

 Leave Link  801 at Mon Oct 31 15:25:37 2022, MaxMem=  8589934592 cpu:               1.0 elap:               0.1
 (Enter /usr/local/gaussian/g16a03/g16/l1002.exe)
 Minotr:  Closed shell wavefunction.
          Direct CPHF calculation.
          Differentiating once with respect to electric field.
                with respect to dipole field.
          Electric field/nuclear overlap derivatives assumed to be zero.
          Requested convergence is 1.0D-08 RMS, and 1.0D-07 maximum.
          Secondary convergence is 1.0D-12 RMS, and 1.0D-12 maximum.
          NewPWx=F KeepS1=T KeepF1=T KeepIn=T MapXYZ=F SortEE=F KeepMc=T.
         9298 words used for storage of precomputed grid.
 Two-electron integral symmetry used by symmetrizing perturbed Fock matrices.
          MDV=    8589934592 using IRadAn=       1.
          Solving linear equations simultaneously, MaxMat=     384.
          There are     3 degrees of freedom in the 1st order CPHF.  IDoFFX=0 NUNeed=     3.
      3 vectors produced by pass  0 Test12= 5.07D-13 3.33D-08 XBig12= 4.79D+01 9.43D-01.
 AX will form     3 AO Fock derivatives at one time.
 FoFJK:  IHMeth= 1 ICntrl=       0 DoSepK=F KAlg= 0 I1Cent=           0 FoldK=F
 IRaf= 980000000 NMat=       3 IRICut=       1 DoRegI=T DoRafI=F ISym2E=-1 IDoP0=0 IntGTp=1.
 FoFCou: FMM=F IPFlag=           0 FMFlag=      100000 FMFlg1=           0
         NFxFlg=           0 DoJE=F BraDBF=F KetDBF=F FulRan=T
         wScrn=  0.000000 ICntrl=         0 IOpCl=  0 I1Cent=           0 NGrid=           0
         NMat0=    3 NMatS0=      3 NMatT0=    0 NMatD0=    3 NMtDS0=    0 NMtDT0=    0
 Petite list used in FoFCou.
      3 vectors produced by pass  1 Test12= 5.07D-13 3.33D-08 XBig12= 4.70D+00 2.04D-01.
      3 vectors produced by pass  2 Test12= 5.07D-13 3.33D-08 XBig12= 5.25D-01 5.20D-02.
      3 vectors produced by pass  3 Test12= 5.07D-13 3.33D-08 XBig12= 5.48D-02 1.63D-02.
      3 vectors produced by pass  4 Test12= 5.07D-13 3.33D-08 XBig12= 7.12D-03 5.74D-03.
      3 vectors produced by pass  5 Test12= 5.07D-13 3.33D-08 XBig12= 9.85D-04 3.30D-03.
      3 vectors produced by pass  6 Test12= 5.07D-13 3.33D-08 XBig12= 8.96D-05 5.50D-04.
      3 vectors produced by pass  7 Test12= 5.07D-13 3.33D-08 XBig12= 1.07D-05 2.30D-04.
      3 vectors produced by pass  8 Test12= 5.07D-13 3.33D-08 XBig12= 6.05D-07 7.01D-05.
      3 vectors produced by pass  9 Test12= 5.07D-13 3.33D-08 XBig12= 4.80D-08 1.86D-05.
      3 vectors produced by pass 10 Test12= 5.07D-13 3.33D-08 XBig12= 6.22D-09 5.77D-06.
      3 vectors produced by pass 11 Test12= 5.07D-13 3.33D-08 XBig12= 4.17D-10 1.42D-06.
      3 vectors produced by pass 12 Test12= 5.07D-13 3.33D-08 XBig12= 1.37D-11 2.62D-07.
      2 vectors produced by pass 13 Test12= 5.07D-13 3.33D-08 XBig12= 6.28D-13 5.45D-08.
 InvSVY:  IOpt=1 It=  1 EMax= 2.66D-15
 Solved reduced A of dimension    41 with     3 vectors.
 FullF1:  Do perturbations      1 to       3.
 SCF Polarizability for W=    0.000000:
                1             2             3 
      1  0.124521D+03
      2  0.805356D+00  0.100870D+03
      3 -0.148435D+01  0.685439D+00  0.947786D+02
 Isotropic polarizability for W=    0.000000      106.72 Bohr**3.
 SCF Static Hyperpolarizability:
 K=  1 block:
                1 
      1  0.449325D+02
 K=  2 block:
                1             2 
      1 -0.118293D+02
      2 -0.819558D+00 -0.128641D+02
 K=  3 block:
                1             2             3 
      1 -0.569888D+00
      2 -0.203140D+01 -0.217992D+01
      3 -0.364316D+01 -0.342050D+01 -0.132313D+01
 End of Minotr F.D. properties file   721 does not exist.
 End of Minotr F.D. properties file   722 does not exist.
 End of Minotr F.D. properties file   788 does not exist.
 Leave Link 1002 at Mon Oct 31 15:31:31 2022, MaxMem=  8589934592 cpu:            5589.8 elap:             353.3
 (Enter /usr/local/gaussian/g16a03/g16/l601.exe)
 Copying SCF densities to generalized density rwf, IOpCl= 0 IROHF=0.

 **********************************************************************

            Population analysis using the SCF density.

 **********************************************************************

 Orbital symmetries:
       Occupied  (A) (A) (A) (A) (A) (A) (A) (A) (A) (A) (A) (A)
                 (A) (A) (A) (A) (A) (A) (A) (A) (A) (A) (A) (A)
                 (A) (A) (A) (A) (A) (A) (A) (A) (A) (A) (A) (A)
                 (A) (A) (A) (A)
       Virtual   (A) (A) (A) (A) (A) (A) (A) (A) (A) (A) (A) (A)
                 (A) (A) (A) (A) (A) (A) (A) (A) (A) (A) (A) (A)
                 (A) (A) (A) (A) (A) (A) (A) (A) (A) (A) (A) (A)
                 (A) (A) (A) (A) (A) (A) (A) (A) (A) (A) (A) (A)
                 (A) (A) (A) (A) (A) (A) (A) (A) (A) (A) (A) (A)
                 (A) (A) (A) (A) (A) (A) (A) (A) (A) (A) (A) (A)
                 (A) (A) (A) (A) (A) (A) (A) (A) (A) (A) (A) (A)
                 (A) (A) (A) (A) (A) (A) (A) (A) (A) (A) (A) (A)
                 (A) (A) (A) (A) (A) (A) (A) (A) (A) (A) (A) (A)
                 (A) (A) (A) (A) (A) (A) (A) (A) (A) (A) (A) (A)
                 (A) (A) (A) (A) (A) (A) (A) (A) (A) (A) (A) (A)
                 (A) (A) (A) (A) (A) (A) (A) (A) (A) (A) (A) (A)
                 (A) (A) (A) (A) (A) (A) (A) (A) (A) (A) (A) (A)
                 (A) (A) (A) (A) (A) (A) (A) (A) (A) (A) (A) (A)
                 (A) (A) (A) (A) (A) (A) (A) (A) (A) (A) (A) (A)
                 (A) (A) (A) (A) (A) (A) (A) (A) (A) (A) (A) (A)
                 (A) (A) (A) (A) (A) (A) (A) (A) (A) (A) (A) (A)
                 (A) (A) (A) (A) (A) (A) (A) (A) (A) (A) (A) (A)
                 (A) (A) (A) (A) (A) (A) (A) (A) (A) (A) (A) (A)
                 (A) (A) (A) (A) (A) (A) (A) (A) (A) (A) (A) (A)
                 (A) (A) (A) (A) (A) (A) (A) (A) (A) (A) (A) (A)
                 (A) (A) (A) (A) (A) (A) (A) (A) (A) (A) (A) (A)
                 (A) (A) (A) (A) (A) (A) (A) (A) (A) (A) (A) (A)
                 (A) (A) (A) (A) (A) (A) (A) (A) (A) (A) (A) (A)
                 (A) (A) (A) (A) (A) (A) (A) (A) (A) (A) (A) (A)
                 (A) (A) (A) (A) (A) (A) (A) (A) (A) (A) (A) (A)
                 (A) (A) (A) (A) (A) (A) (A) (A) (A) (A) (A) (A)
                 (A) (A) (A) (A) (A) (A) (A) (A) (A) (A) (A) (A)
                 (A) (A) (A) (A) (A) (A) (A) (A) (A) (A) (A) (A)
                 (A) (A) (A) (A) (A) (A) (A) (A) (A) (A) (A) (A)
                 (A) (A) (A) (A) (A) (A) (A) (A) (A) (A) (A) (A)
                 (A) (A) (A) (A) (A) (A) (A) (A)
 The electronic state is 1-A.
 Alpha  occ. eigenvalues --  -15.02552 -10.75357 -10.75330 -10.75304 -10.75292
 Alpha  occ. eigenvalues --  -10.70646 -10.70566 -10.69315 -10.67690 -10.64918
 Alpha  occ. eigenvalues --   -1.28326  -1.08299  -1.04302  -1.01295  -0.98816
 Alpha  occ. eigenvalues --   -0.95265  -0.88218  -0.85139  -0.83797  -0.80814
 Alpha  occ. eigenvalues --   -0.76409  -0.74907  -0.71789  -0.69297  -0.68911
 Alpha  occ. eigenvalues --   -0.66635  -0.65739  -0.63431  -0.62585  -0.61527
 Alpha  occ. eigenvalues --   -0.61507  -0.59180  -0.57966  -0.57624  -0.57351
 Alpha  occ. eigenvalues --   -0.56699  -0.55568  -0.53067  -0.52202  -0.51992
 Alpha virt. eigenvalues --   -0.12398  -0.11079  -0.10630  -0.10298  -0.08637
 Alpha virt. eigenvalues --   -0.08471  -0.08286  -0.08065  -0.07934  -0.06885
 Alpha virt. eigenvalues --   -0.05841  -0.05521  -0.05387  -0.05126  -0.04919
 Alpha virt. eigenvalues --   -0.04666  -0.03756  -0.03605  -0.03045  -0.02819
 Alpha virt. eigenvalues --   -0.02709  -0.02109  -0.01771  -0.01419  -0.00989
 Alpha virt. eigenvalues --   -0.00830  -0.00675  -0.00158   0.00357   0.00408
 Alpha virt. eigenvalues --    0.00635   0.00829   0.01052   0.01230   0.01648
 Alpha virt. eigenvalues --    0.01783   0.01824   0.01885   0.02053   0.02421
 Alpha virt. eigenvalues --    0.02615   0.03236   0.03532   0.03977   0.04062
 Alpha virt. eigenvalues --    0.04390   0.04748   0.04907   0.05313   0.05733
 Alpha virt. eigenvalues --    0.05814   0.06289   0.06504   0.06832   0.06974
 Alpha virt. eigenvalues --    0.07551   0.07716   0.08167   0.08452   0.08741
 Alpha virt. eigenvalues --    0.09179   0.09481   0.09753   0.10181   0.10567
 Alpha virt. eigenvalues --    0.10822   0.11028   0.11652   0.12039   0.12608
 Alpha virt. eigenvalues --    0.13033   0.13145   0.13852   0.14274   0.14621
 Alpha virt. eigenvalues --    0.14830   0.15217   0.15775   0.16114   0.16242
 Alpha virt. eigenvalues --    0.16853   0.16891   0.17599   0.18011   0.18302
 Alpha virt. eigenvalues --    0.18424   0.19140   0.19575   0.19891   0.20104
 Alpha virt. eigenvalues --    0.20421   0.20823   0.21340   0.21606   0.22184
 Alpha virt. eigenvalues --    0.22476   0.22780   0.23064   0.23488   0.23883
 Alpha virt. eigenvalues --    0.24281   0.24393   0.24588   0.25245   0.25632
 Alpha virt. eigenvalues --    0.25985   0.26153   0.26538   0.26874   0.27197
 Alpha virt. eigenvalues --    0.27662   0.27985   0.28344   0.28566   0.28727
 Alpha virt. eigenvalues --    0.29207   0.29497   0.29742   0.30146   0.30623
 Alpha virt. eigenvalues --    0.30843   0.31228   0.31565   0.31947   0.32759
 Alpha virt. eigenvalues --    0.33152   0.33788   0.33799   0.34710   0.34898
 Alpha virt. eigenvalues --    0.35180   0.35641   0.35781   0.36425   0.36638
 Alpha virt. eigenvalues --    0.37002   0.37160   0.37733   0.38028   0.38362
 Alpha virt. eigenvalues --    0.38677   0.39108   0.39516   0.40011   0.40575
 Alpha virt. eigenvalues --    0.40777   0.40979   0.41365   0.41584   0.42080
 Alpha virt. eigenvalues --    0.42221   0.42714   0.43258   0.43922   0.43965
 Alpha virt. eigenvalues --    0.44457   0.44611   0.44938   0.45313   0.45578
 Alpha virt. eigenvalues --    0.46111   0.47024   0.47226   0.47775   0.48369
 Alpha virt. eigenvalues --    0.48668   0.48964   0.49275   0.49777   0.49879
 Alpha virt. eigenvalues --    0.51432   0.51590   0.52257   0.52577   0.52993
 Alpha virt. eigenvalues --    0.53715   0.53860   0.54575   0.54712   0.55474
 Alpha virt. eigenvalues --    0.56107   0.57078   0.57893   0.58851   0.58920
 Alpha virt. eigenvalues --    0.59767   0.60045   0.60744   0.60972   0.61397
 Alpha virt. eigenvalues --    0.61667   0.62560   0.63015   0.63797   0.64230
 Alpha virt. eigenvalues --    0.65101   0.65657   0.66473   0.66875   0.67492
 Alpha virt. eigenvalues --    0.68582   0.69129   0.70549   0.71374   0.72473
 Alpha virt. eigenvalues --    0.72966   0.74474   0.75250   0.76820   0.77399
 Alpha virt. eigenvalues --    0.78249   0.78690   0.79890   0.81242   0.81951
 Alpha virt. eigenvalues --    0.82756   0.83367   0.84554   0.85148   0.86270
 Alpha virt. eigenvalues --    0.86471   0.88141   0.89512   0.90249   0.90481
 Alpha virt. eigenvalues --    0.91889   0.93121   0.93656   0.94397   0.95384
 Alpha virt. eigenvalues --    0.96169   0.97468   0.98328   0.99476   0.99789
 Alpha virt. eigenvalues --    1.00703   1.01281   1.02696   1.03743   1.05196
 Alpha virt. eigenvalues --    1.06212   1.06956   1.07369   1.08248   1.08677
 Alpha virt. eigenvalues --    1.09620   1.10733   1.11942   1.12997   1.15050
 Alpha virt. eigenvalues --    1.15327   1.16262   1.16728   1.18449   1.19452
 Alpha virt. eigenvalues --    1.20164   1.21763   1.24180   1.24782   1.26143
 Alpha virt. eigenvalues --    1.26275   1.28240   1.29042   1.30565   1.30912
 Alpha virt. eigenvalues --    1.32381   1.32832   1.33466   1.34416   1.36240
 Alpha virt. eigenvalues --    1.36478   1.37736   1.39315   1.39754   1.40538
 Alpha virt. eigenvalues --    1.41401   1.42381   1.42937   1.43762   1.45629
 Alpha virt. eigenvalues --    1.46141   1.46857   1.47496   1.48616   1.49785
 Alpha virt. eigenvalues --    1.50496   1.52226   1.52506   1.52833   1.53256
 Alpha virt. eigenvalues --    1.54380   1.55234   1.56607   1.58006   1.59592
 Alpha virt. eigenvalues --    1.60157   1.61450   1.62619   1.63555   1.64941
 Alpha virt. eigenvalues --    1.65812   1.66314   1.68020   1.70036   1.71191
 Alpha virt. eigenvalues --    1.71867   1.72958   1.74168   1.75858   1.76073
 Alpha virt. eigenvalues --    1.77282   1.78006   1.80007   1.81801   1.82215
 Alpha virt. eigenvalues --    1.83253   1.84251   1.85891   1.87464   1.88892
 Alpha virt. eigenvalues --    1.90559   1.91488   1.92869   1.96040   1.96716
 Alpha virt. eigenvalues --    1.97467   1.98835   1.99331   2.00897   2.02831
 Alpha virt. eigenvalues --    2.03231   2.05619   2.06071   2.07835   2.08546
 Alpha virt. eigenvalues --    2.12029   2.13716   2.14454   2.16101   2.16767
 Alpha virt. eigenvalues --    2.17538   2.18086   2.19272   2.20882   2.25563
 Alpha virt. eigenvalues --    2.27311   2.29383   2.31383   2.32947   2.36283
 Alpha virt. eigenvalues --    2.38173   2.39825   2.42779   2.45462   2.47244
 Alpha virt. eigenvalues --    2.49250   2.50376   2.52930   2.54263   2.55335
 Alpha virt. eigenvalues --    2.59788   2.62424   2.66119   2.66358   2.71859
 Alpha virt. eigenvalues --    2.73115   2.76009   2.79051   2.83320   2.89956
 Alpha virt. eigenvalues --   21.87029  21.91130  22.00248  22.04408  22.07203
 Alpha virt. eigenvalues --   22.11320  22.17255  22.20646  22.23987  33.14147
          Condensed to atoms (all electrons):
               1          2          3          4          5          6
     1  C   34.346695 -11.813581   7.827885   0.016238   1.371413 -16.733929
     2  C  -11.813581  30.096599  -5.227109   1.308188  -5.135409   1.926848
     3  C    7.827885  -5.227109  34.730550  -0.514872   0.625903 -17.106875
     4  H    0.016238   1.308188  -0.514872   9.394851  -5.173452   0.806878
     5  H    1.371413  -5.135409   0.625903  -5.173452   7.651424  -0.023012
     6  C  -16.733929   1.926848 -17.106875   0.806878  -0.023012  45.852976
     7  H    0.841347   0.166582  -4.030847  -1.067937   0.590555  -0.076822
     8  H   -0.966181  -0.142913   0.060171   1.286944  -1.146681   2.517409
     9  N   -5.545904   1.655515   0.238888  -0.814540   0.937139  -2.325160
    10  H   -0.939756  -3.549293  -1.858317  -0.452091   0.193603   0.546511
    11  H    1.258964   0.878809  -0.082760  -0.574266   0.297275  -4.445435
    12  H    1.401135   0.883067  -0.878929   1.469918  -1.488454  -2.115923
    13  H    0.649486  -3.338561   1.491680  -1.649992   1.021082  -0.364513
    14  C   -2.776630  -0.704477  -3.744503  -0.657471   0.593209  -1.521730
    15  H    2.434986  -0.505300   0.937384  -0.085129  -0.031403  -1.749889
    16  H   -2.499688   0.169295  -2.962432  -0.004619   0.218645   3.787319
    17  H   -0.252186   0.213984  -0.122910  -0.156557   0.120338   0.388431
    18  C   -0.070441  -3.878944  -3.539771  -0.478020   0.678072  -3.090574
    19  C   -0.390990  -0.654199   1.355372  -0.490197   0.279974  -4.314082
    20  H   -0.070091   0.774645  -0.685604   0.042294   0.001055   0.735576
    21  H    0.127180  -1.819287   0.833829  -1.087521   0.412813  -0.136043
    22  C   -2.198532   0.737832  -3.687807   0.451762  -0.156830   3.133693
    23  H   -0.220030   0.329918  -1.165504  -0.098107   0.040156  -0.838673
    24  H   -0.286478  -0.153737   0.393460   0.057868  -0.015888   1.317608
    25  C   -0.119760  -0.027452  -0.625926   0.024001  -0.007349  -1.759758
    26  H   -0.100145   0.634229  -0.625467   0.173919  -0.026443  -0.233309
    27  H   -0.075093  -0.063394   0.727238  -0.019123   0.010027   1.984802
    28  H   -0.044173  -0.033126  -0.015936  -0.010465   0.000843  -0.254585
    29  H    0.019568  -0.015072  -0.051520   0.000942  -0.000975  -0.253103
    30  H    0.020172   0.029175   0.037942   0.009796  -0.001268   0.467722
               7          8          9         10         11         12
     1  C    0.841347  -0.966181  -5.545904  -0.939756   1.258964   1.401135
     2  C    0.166582  -0.142913   1.655515  -3.549293   0.878809   0.883067
     3  C   -4.030847   0.060171   0.238888  -1.858317  -0.082760  -0.878929
     4  H   -1.067937   1.286944  -0.814540  -0.452091  -0.574266   1.469918
     5  H    0.590555  -1.146681   0.937139   0.193603   0.297275  -1.488454
     6  C   -0.076822   2.517409  -2.325160   0.546511  -4.445435  -2.115923
     7  H    8.003112  -5.285070   0.610636  -2.136983   0.895881   0.141547
     8  H   -5.285070   9.098704   0.206166   2.310146  -1.842026   0.098481
     9  N    0.610636   0.206166  51.159248   0.331952  -0.628900  -1.537825
    10  H   -2.136983   2.310146   0.331952  15.256902  -6.885527  -0.674797
    11  H    0.895881  -1.842026  -0.628900  -6.885527  12.734641  -0.119421
    12  H    0.141547   0.098481  -1.537825  -0.674797  -0.119421  10.913601
    13  H    0.201465  -0.211140  -2.698150   0.171372   0.121389  -5.053140
    14  C    0.913441  -0.956510  -6.912290  -0.895300   1.150423   1.851213
    15  H    0.171791   0.054008  -3.570793  -0.103919  -0.346178   1.144180
    16  H    0.344874  -1.491856  -2.625762  -0.553078   0.859945  -0.703717
    17  H   -0.003137  -0.041692  -4.172609   0.167023   0.219716  -1.095855
    18  C    0.637863  -0.896725  -7.014466   0.991111   0.612494  -1.247981
    19  C    0.113906  -0.120510   6.074538  -1.437131   0.254946  -0.361099
    20  H    0.009882  -0.120508  -3.967371  -0.127402   0.183331   0.305625
    21  H    0.329015  -0.282520  -1.932103   0.490934  -0.392812  -0.446717
    22  C    0.099780  -0.112180  -2.401397   2.421138  -1.488618  -0.256445
    23  H    0.035781  -0.175793  -4.831425   0.049761   0.264270  -0.300713
    24  H   -0.005419   0.026813  -0.176059  -0.020049   0.179148   0.015738
    25  C    0.025156  -0.040391  -2.090760   0.769662  -0.189151  -0.050048
    26  H    0.029710  -0.085866  -1.709221  -1.864806   0.633176   0.028415
    27  H    0.077609  -0.049729   2.070985   0.174606  -1.933646  -0.048020
    28  H   -0.002562   0.004096   0.199979   0.177948  -0.205631  -0.005892
    29  H    0.001231  -0.006666  -0.269182   0.111104   0.067868   0.002362
    30  H    0.003614   0.002779   0.053431  -0.176950   0.158874  -0.001958
              13         14         15         16         17         18
     1  C    0.649486  -2.776630   2.434986  -2.499688  -0.252186  -0.070441
     2  C   -3.338561  -0.704477  -0.505300   0.169295   0.213984  -3.878944
     3  C    1.491680  -3.744503   0.937384  -2.962432  -0.122910  -3.539771
     4  H   -1.649992  -0.657471  -0.085129  -0.004619  -0.156557  -0.478020
     5  H    1.021082   0.593209  -0.031403   0.218645   0.120338   0.678072
     6  C   -0.364513  -1.521730  -1.749889   3.787319   0.388431  -3.090574
     7  H    0.201465   0.913441   0.171791   0.344874  -0.003137   0.637863
     8  H   -0.211140  -0.956510   0.054008  -1.491856  -0.041692  -0.896725
     9  N   -2.698150  -6.912290  -3.570793  -2.625762  -4.172609  -7.014466
    10  H    0.171372  -0.895300  -0.103919  -0.553078   0.167023   0.991111
    11  H    0.121389   1.150423  -0.346178   0.859945   0.219716   0.612494
    12  H   -5.053140   1.851213   1.144180  -0.703717  -1.095855  -1.247981
    13  H    9.467739  -1.285490   0.107959  -0.541986   0.645564   2.585621
    14  C   -1.285490  17.701810  -0.228755  -0.558992   0.582166  -1.520943
    15  H    0.107959  -0.228755  14.373980  -4.961162  -2.663444  -1.876997
    16  H   -0.541986  -0.558992  -4.961162  11.423497  -1.909630   1.048157
    17  H    0.645564   0.582166  -2.663444  -1.909630   9.540468   1.397306
    18  C    2.585621  -1.520943  -1.876997   1.048157   1.397306  36.355886
    19  C    0.214046  -2.573779   0.748984   0.381810  -2.084546 -15.273883
    20  H   -0.857118   0.825215   0.536331   0.336159  -0.042799  -1.981403
    21  H    0.634996   0.302897  -0.226126   0.314405  -0.233930   0.096623
    22  C    0.182396  -0.214603  -0.461744   0.577598   0.982254  -1.902511
    23  H   -0.163157   1.649839  -1.005059   0.708575  -0.284195   2.692958
    24  H    0.154186   0.528083   0.248473   0.012000   0.380783   1.860490
    25  C   -0.062179   0.831266  -0.193167   0.171515   0.134754   0.886776
    26  H    0.010436   1.151154   0.539120   0.042010   0.118736   0.638573
    27  H    0.135700  -0.977965  -1.553928   0.313593  -0.196036  -2.320782
    28  H   -0.005957  -0.019393  -0.120676   0.015846  -0.016010  -0.197895
    29  H   -0.002275   0.029745   0.059239   0.001530   0.009846   0.590746
    30  H   -0.004811  -0.008498   0.159420  -0.041538   0.051553  -0.495502
              19         20         21         22         23         24
     1  C   -0.390990  -0.070091   0.127180  -2.198532  -0.220030  -0.286478
     2  C   -0.654199   0.774645  -1.819287   0.737832   0.329918  -0.153737
     3  C    1.355372  -0.685604   0.833829  -3.687807  -1.165504   0.393460
     4  H   -0.490197   0.042294  -1.087521   0.451762  -0.098107   0.057868
     5  H    0.279974   0.001055   0.412813  -0.156830   0.040156  -0.015888
     6  C   -4.314082   0.735576  -0.136043   3.133693  -0.838673   1.317608
     7  H    0.113906   0.009882   0.329015   0.099780   0.035781  -0.005419
     8  H   -0.120510  -0.120508  -0.282520  -0.112180  -0.175793   0.026813
     9  N    6.074538  -3.967371  -1.932103  -2.401397  -4.831425  -0.176059
    10  H   -1.437131  -0.127402   0.490934   2.421138   0.049761  -0.020049
    11  H    0.254946   0.183331  -0.392812  -1.488618   0.264270   0.179148
    12  H   -0.361099   0.305625  -0.446717  -0.256445  -0.300713   0.015738
    13  H    0.214046  -0.857118   0.634996   0.182396  -0.163157   0.154186
    14  C   -2.573779   0.825215   0.302897  -0.214603   1.649839   0.528083
    15  H    0.748984   0.536331  -0.226126  -0.461744  -1.005059   0.248473
    16  H    0.381810   0.336159   0.314405   0.577598   0.708575   0.012000
    17  H   -2.084546  -0.042799  -0.233930   0.982254  -0.284195   0.380783
    18  C  -15.273883  -1.981403   0.096623  -1.902511   2.692958   1.860490
    19  C   40.980487  -2.978171   1.674902 -13.177678  -1.930048  -5.388104
    20  H   -2.978171  12.344585  -7.018527   3.293585  -0.253182   0.862748
    21  H    1.674902  -7.018527  14.497019  -3.387695   1.366291  -1.453364
    22  C  -13.177678   3.293585  -3.387695  35.991402  -2.130648   0.085259
    23  H   -1.930048  -0.253182   1.366291  -2.130648  14.012943  -6.463735
    24  H   -5.388104   0.862748  -1.453364   0.085259  -6.463735  10.294417
    25  C    1.026207  -0.161717   0.414846 -11.632614   1.535303   0.171353
    26  H    1.767899  -0.093017  -1.301584  -2.859591  -0.295480   0.194240
    27  H   -0.037329   0.199458   0.307792   0.087634  -0.106928  -0.439142
    28  H   -1.520051   0.055872   0.286387   2.130779   0.736111  -1.484709
    29  H    2.091651   0.012850   0.065128  -1.724585   0.119647   0.341723
    30  H   -0.908247  -0.084181  -0.213485   3.584327  -1.179605   0.656094
              25         26         27         28         29         30
     1  C   -0.119760  -0.100145  -0.075093  -0.044173   0.019568   0.020172
     2  C   -0.027452   0.634229  -0.063394  -0.033126  -0.015072   0.029175
     3  C   -0.625926  -0.625467   0.727238  -0.015936  -0.051520   0.037942
     4  H    0.024001   0.173919  -0.019123  -0.010465   0.000942   0.009796
     5  H   -0.007349  -0.026443   0.010027   0.000843  -0.000975  -0.001268
     6  C   -1.759758  -0.233309   1.984802  -0.254585  -0.253103   0.467722
     7  H    0.025156   0.029710   0.077609  -0.002562   0.001231   0.003614
     8  H   -0.040391  -0.085866  -0.049729   0.004096  -0.006666   0.002779
     9  N   -2.090760  -1.709221   2.070985   0.199979  -0.269182   0.053431
    10  H    0.769662  -1.864806   0.174606   0.177948   0.111104  -0.176950
    11  H   -0.189151   0.633176  -1.933646  -0.205631   0.067868   0.158874
    12  H   -0.050048   0.028415  -0.048020  -0.005892   0.002362  -0.001958
    13  H   -0.062179   0.010436   0.135700  -0.005957  -0.002275  -0.004811
    14  C    0.831266   1.151154  -0.977965  -0.019393   0.029745  -0.008498
    15  H   -0.193167   0.539120  -1.553928  -0.120676   0.059239   0.159420
    16  H    0.171515   0.042010   0.313593   0.015846   0.001530  -0.041538
    17  H    0.134754   0.118736  -0.196036  -0.016010   0.009846   0.051553
    18  C    0.886776   0.638573  -2.320782  -0.197895   0.590746  -0.495502
    19  C    1.026207   1.767899  -0.037329  -1.520051   2.091651  -0.908247
    20  H   -0.161717  -0.093017   0.199458   0.055872   0.012850  -0.084181
    21  H    0.414846  -1.301584   0.307792   0.286387   0.065128  -0.213485
    22  C  -11.632614  -2.859591   0.087634   2.130779  -1.724585   3.584327
    23  H    1.535303  -0.295480  -0.106928   0.736111   0.119647  -1.179605
    24  H    0.171353   0.194240  -0.439142  -1.484709   0.341723   0.656094
    25  C   19.173581  -0.620637  -2.196483  -1.039760  -0.240984  -2.973800
    26  H   -0.620637  10.793503  -4.669438  -1.444452  -0.301070   1.415349
    27  H   -2.196483  -4.669438  11.357179   2.236018  -1.507924  -1.617393
    28  H   -1.039760  -1.444452   2.236018   7.077898  -2.802657  -1.984038
    29  H   -0.240984  -0.301070  -1.507924  -2.802657   7.019430  -1.772362
    30  H   -2.973800   1.415349  -1.617393  -1.984038  -1.772362   6.607656
 Mulliken charges:
               1
     1  C    0.788520
     2  C    3.257167
     3  C    3.666788
     4  H   -0.709240
     5  H   -0.836360
     6  C   -0.122358
     7  H   -0.636000
     8  H   -0.690761
     9  N   -1.314559
    10  H   -1.488375
    11  H   -0.636778
    12  H   -0.868348
    13  H   -0.556647
    14  C    3.446868
    15  H   -0.832186
    16  H   -0.872313
    17  H   -0.677387
    18  C    0.714162
    19  C    2.675322
    20  H   -1.078119
    21  H   -1.223345
    22  C    0.034039
    23  H   -1.099270
    24  H   -0.893801
    25  C    4.867517
    26  H   -0.939941
    27  H   -0.870286
    28  H   -0.713809
    29  H   -0.596234
    30  H   -0.794267
 Sum of Mulliken charges =   1.00000
 Mulliken charges with hydrogens summed into heavy atoms:
               1
     1  C   -0.636475
     2  C    1.711567
     3  C    2.340027
     6  C   -2.247510
     9  N   -1.314559
    14  C    1.064981
    18  C   -1.587302
    19  C    0.682251
    22  C   -1.776188
    25  C    2.763207
 Electronic spatial extent (au):  <R**2>=           1932.6330
 Charge=              1.0000 electrons
 Dipole moment (field-independent basis, Debye):
    X=              2.7829    Y=             -1.3662    Z=              0.3926  Tot=              3.1250
 Quadrupole moment (field-independent basis, Debye-Ang):
   XX=            -44.5673   YY=            -55.0614   ZZ=            -56.5713
   XY=              0.0637   XZ=              0.5831   YZ=             -0.5026
 Traceless Quadrupole moment (field-independent basis, Debye-Ang):
   XX=              7.4994   YY=             -2.9948   ZZ=             -4.5046
   XY=              0.0637   XZ=              0.5831   YZ=             -0.5026
 Octapole moment (field-independent basis, Debye-Ang**2):
  XXX=             16.2653  YYY=             -4.1655  ZZZ=              3.7129  XYY=              8.1990
  XXY=              2.9126  XXZ=             -3.3724  XZZ=              4.8748  YZZ=             -5.3757
  YYZ=              1.4560  XYZ=             -1.2932
 Hexadecapole moment (field-independent basis, Debye-Ang**3):
 XXXX=          -1674.3873 YYYY=           -413.4513 ZZZZ=           -284.2918 XXXY=             -7.0688
 XXXZ=             -2.9981 YYYX=              3.6270 YYYZ=             -2.3480 ZZZX=              5.0258
 ZZZY=             -4.2377 XXYY=           -359.9023 XXZZ=           -343.7251 YYZZ=           -114.6134
 XXYZ=              1.5941 YYXZ=              0.3843 ZZXY=              1.1209
 N-N= 6.048043466459D+02 E-N=-2.142990520144D+03  KE= 4.068481684480D+02
  Exact polarizability: 124.521   0.805 100.870  -1.484   0.685  94.779
 Approx polarizability: 128.360   0.653 124.958  -0.457   0.406 123.289
 No NMR shielding tensors so no spin-rotation constants.
 Leave Link  601 at Mon Oct 31 15:31:32 2022, MaxMem=  8589934592 cpu:              22.1 elap:               1.8
 (Enter /usr/local/gaussian/g16a03/g16/l9999.exe)

 ----------------------------------------------------------------------

 Electric dipole moment (input orientation):
 (Debye = 10**-18 statcoulomb cm , SI units = C m)
                  (au)            (Debye)         (10**-30 SI)
   Tot        0.122946D+01      0.312497D+01      0.104238D+02
   x         -0.645824D+00     -0.164152D+01     -0.547553D+01
   y          0.946486D+00      0.240573D+01      0.802465D+01
   z          0.445694D+00      0.113284D+01      0.377875D+01

 Dipole polarizability, Alpha (input orientation).
 (esu units = cm**3 , SI units = C**2 m**2 J**-1)
 Alpha(0;0):
               (au)            (10**-24 esu)      (10**-40 SI)
   iso        0.106723D+03      0.158147D+02      0.175963D+02
   aniso      0.273952D+02      0.405955D+01      0.451686D+01
   xx         0.101937D+03      0.151056D+02      0.168072D+02
   yx        -0.689203D+01     -0.102129D+01     -0.113634D+01
   yy         0.103646D+03      0.153587D+02      0.170888D+02
   zx        -0.521659D+01     -0.773019D+00     -0.860099D+00
   zy         0.113291D+02      0.167881D+01      0.186792D+01
   zz         0.114586D+03      0.169800D+02      0.188927D+02

 First dipole hyperpolarizability, Beta (input orientation).
 ||, _|_  parallel and perpendicular components, (z) with respect to z axis,
 vector components x,y,z.  Values do not include the 1/n! factor of 1/2.
 (esu units = statvolt**-1 cm**4 , SI units = C**3 m**3 J**-2)
 Beta(0;0,0):
               (au)            (10**-30 esu)      (10**-50 SI)
   || (z)     0.856156D+01      0.739652D-01      0.274514D-01
   _|_(z)     0.285385D+01      0.246551D-01      0.915048D-02
   x         -0.107441D+03     -0.928210D+00     -0.344496D+00
   y          0.928810D+02      0.802420D+00      0.297810D+00
   z          0.428078D+02      0.369826D+00      0.137257D+00
   ||         0.296668D+02      0.256298D+00      0.951226D-01
   xxx       -0.106071D+02     -0.916367D-01     -0.340101D-01
   xxy        0.613753D+01      0.530235D-01      0.196791D-01
   yxy       -0.126481D+02     -0.109269D+00     -0.405543D-01
   yyy        0.126504D+02      0.109290D+00      0.405618D-01
   xxz        0.414919D-01      0.358458D-03      0.133038D-03
   yxz       -0.102903D+02     -0.888998D-01     -0.329943D-01
   yyz        0.973327D+01      0.840878D-01      0.312084D-01
   zxz       -0.125587D+02     -0.108497D+00     -0.402676D-01
   zyz        0.121724D+02      0.105160D+00      0.390291D-01
   zzz        0.449450D+01      0.388290D-01      0.144110D-01

 ----------------------------------------------------------------------

 Dipole orientation:
     6         -7.67247834         -2.26020506         -5.64713536
     6         -5.69147308         -4.33443130         -5.63220834
     6         -3.49696546         -3.11831640         -7.04254446
     1         -6.36514172         -6.00150582         -6.63789532
     1         -5.22323309         -4.89841902         -3.71427341
     6         -4.82958977         -1.81941092         -9.21879213
     1         -2.10999568         -4.47080309         -7.72338307
     1         -2.51585128         -1.75431100         -5.84865341
     7         -7.28141774         -0.79073814         -8.11438127
     1         -5.33511520         -3.17194794        -10.67780142
     1         -3.78637496         -0.27808395        -10.07691452
     1         -7.38026352         -0.93857306         -4.10276911
     1         -9.60801951         -2.93232337         -5.57838671
     6         -7.00220722          1.95151766         -7.54689946
     1         -6.66545981          2.98111197         -9.28762155
     1         -5.40757804          2.20298557         -6.27808718
     1         -8.72158158          2.62863352         -6.64881199
     6         -9.53688225         -1.23715546         -9.82344461
     6         -9.69413434          0.27300375        -12.26184739
     1        -11.18316488         -0.79858767         -8.66975821
     1         -9.54583117         -3.26163003        -10.20307764
     6         -7.67709035         -0.16001406        -14.27742988
     1         -9.86405238          2.28661631        -11.84720954
     1        -11.52576613         -0.26004842        -13.05411120
     6         -8.38942953          1.10360308        -16.76419674
     1         -7.42236868         -2.18766424        -14.58067802
     1         -5.85491219          0.57979517        -13.65423527
     1        -10.15294697          0.33732775        -17.50352270
     1         -6.92956933          0.81295155        -18.18291177
     1         -8.63640994          3.13498826        -16.51964686

 Electric dipole moment (dipole orientation):
 (Debye = 10**-18 statcoulomb cm , SI units = C m)
                  (au)            (Debye)         (10**-30 SI)
   Tot        0.122946D+01      0.312497D+01      0.104238D+02
   x          0.000000D+00      0.000000D+00      0.000000D+00
   y          0.000000D+00      0.000000D+00      0.000000D+00
   z          0.122946D+01      0.312497D+01      0.104238D+02

 Dipole polarizability, Alpha (dipole orientation).
 (esu units = cm**3 , SI units = C**2 m**2 J**-1)
 Alpha(0;0):
               (au)            (10**-24 esu)      (10**-40 SI)
   iso        0.106723D+03      0.158147D+02      0.175963D+02
   aniso      0.273952D+02      0.405955D+01      0.451686D+01
   xx         0.101478D+03      0.150374D+02      0.167314D+02
   yx        -0.537802D+01     -0.796940D+00     -0.886716D+00
   yy         0.100196D+03      0.148474D+02      0.165200D+02
   zx         0.537387D+01      0.796326D+00      0.886032D+00
   zy        -0.938069D+01     -0.139008D+01     -0.154667D+01
   zz         0.118496D+03      0.175593D+02      0.195374D+02

 First dipole hyperpolarizability, Beta (dipole orientation).
 ||, _|_  parallel and perpendicular components, (z) with respect to z axis,
 vector components x,y,z.  Values do not include the 1/n! factor of 1/2.
 (esu units = statvolt**-1 cm**4 , SI units = C**3 m**3 J**-2)
 Beta(0;0,0):
               (au)            (10**-30 esu)      (10**-50 SI)
   || (z)     0.286920D+02      0.247876D+00      0.919969D-01
   _|_(z)     0.956399D+01      0.826255D-01      0.306656D-01
   x         -0.356293D+02     -0.307809D+00     -0.114240D+00
   y         -0.123630D+02     -0.106806D+00     -0.396402D-01
   z          0.143460D+03      0.123938D+01      0.459984D+00
   ||         0.296668D+02      0.256298D+00      0.951226D-01
   xxx       -0.151713D+02     -0.131068D+00     -0.486447D-01
   xxy        0.204561D+01      0.176725D-01      0.655897D-02
   yxy       -0.133909D+01     -0.115687D-01     -0.429359D-02
   yyy        0.366221D+01      0.316386D-01      0.117424D-01
   xxz        0.194306D+00      0.167865D-02      0.623016D-03
   yxz       -0.342141D+01     -0.295583D-01     -0.109703D-01
   yyz        0.274632D+01      0.237260D-01      0.880568D-02
   zxz        0.463397D+01      0.400339D-01      0.148582D-01
   zyz       -0.982881D+01     -0.849133D-01     -0.315147D-01
   zzz        0.448793D+02      0.387723D+00      0.143899D+00

 ----------------------------------------------------------------------
 1\1\GINC-MD08\SP\RM062X\Gen\C9H20N1(1+)\SOPHIEC\31-Oct-2022\0\\#P M062
 X/Gen field=Y+8 int=(grid=ultrafine) polar=Dipole\\c4mpyr_eGeom\\1,1\C
 ,0,-2.0231,-4.18137,-2.29528\C,0,-1.51702,-4.48435,-0.89675\C,0,-0.007
 88,-4.35061,-1.05271\H,0,-1.78359,-5.49831,-0.5978\H,0,-1.94113,-3.798
 11,-0.16891\C,0,0.23868,-5.0581,-2.36977\H,0,0.55427,-4.81453,-0.2468\
 H,0,0.28852,-3.30231,-1.10663\N,0,-0.94145,-4.68569,-3.25851\H,0,0.218
 48,-6.13628,-2.23918\H,0,1.15954,-4.78298,-2.87231\H,0,-2.1215,-3.1111
 6,-2.4562\H,0,-2.96459,-4.65832,-2.54631\C,0,-0.55067,-3.59072,-4.1891
 8\H,0,0.23702,-3.93912,-4.84894\H,0,-0.19092,-2.74819,-3.60496\H,0,-1.
 41956,-3.29244,-4.77068\C,0,-1.48832,-5.86965,-4.03146\C,0,-0.63969,-6
 .43617,-5.15815\H,0,-2.43488,-5.52709,-4.44643\H,0,-1.70453,-6.63103,-
 3.28204\C,0,0.70379,-7.06996,-4.80772\H,0,-0.5104,-5.69187,-5.94615\H,
 0,-1.27615,-7.20598,-5.60212\C,0,1.29289,-7.81708,-5.99755\H,0,0.57712
 ,-7.75976,-3.96906\H,0,1.41573,-6.30869,-4.48304\H,0,0.63383,-8.62436,
 -6.31742\H,0,2.25768,-8.25266,-5.7455\H,0,1.43973,-7.14886,-6.84684\\V
 ersion=ES64L-G16RevA.03\State=1-A\HF=-409.4037195\RMSD=2.954e-09\Dipol
 e=-0.6458244,0.9464863,0.4456943\Polar=101.9373742,-6.8920314,103.6455
 217,-5.2165885,11.329144,114.5864005\HyperPolar=-10.6070604,6.1375319,
 -12.6480663,12.6504159,0.0414919,-10.2902535,9.7332654,-12.5586558,12.
 1723945,4.4945012\Quadrupole=-2.3382019,0.3489349,1.989267,-2.0396894,
 -1.5388108,3.55793\PG=C01 [X(C9H20N1)]\\@


 ABOVE ALL I AM AN OPTIMIST FOR NUMBER THEORY,
 AND I HOLD THE HOPE THAT WE MAY NOT BE FAR FROM
 A TIME WHEN IRREFUTABLE ARITHMETIC WILL CELEBRATE
 ITS TRIUMPHS IN PHYSICS AND CHEMISTRY.
   -- HERMANN MINKOWSKI, 1905
 Job cpu time:       0 days  2 hours 33 minutes 22.9 seconds.
 Elapsed time:       0 days  0 hours  9 minutes 40.5 seconds.
 File lengths (MBytes):  RWF=     94 Int=      0 D2E=      0 Chk=     13 Scr=      1
 Normal termination of Gaussian 16 at Mon Oct 31 15:31:33 2022.
Done.
Output directory in: /monfs01/projects/sn29/sophiec/md/polarisabilities/c4mpyr/plusY/g16.10108894
