No checkpoint file specified...
total 0
 Entering Gaussian System, Link 0=g16
 Initial command:
 /usr/local/gaussian/g16a03/g16/l1.exe "/tmp/p2015120004.sophiec/g16.10108897/scratch/Gau-12016.inp" -scrdir="/tmp/p2015120004.sophiec/g16.10108897/scratch/"
 Entering Link 1 = /usr/local/gaussian/g16a03/g16/l1.exe PID=     12022.
  
 Copyright (c) 1988,1990,1992,1993,1995,1998,2003,2009,2016,
            Gaussian, Inc.  All Rights Reserved.
  
 This is part of the Gaussian(R) 16 program.  It is based on
 the Gaussian(R) 09 system (copyright 2009, Gaussian, Inc.),
 the Gaussian(R) 03 system (copyright 2003, Gaussian, Inc.),
 the Gaussian(R) 98 system (copyright 1998, Gaussian, Inc.),
 the Gaussian(R) 94 system (copyright 1995, Gaussian, Inc.),
 the Gaussian 92(TM) system (copyright 1992, Gaussian, Inc.),
 the Gaussian 90(TM) system (copyright 1990, Gaussian, Inc.),
 the Gaussian 88(TM) system (copyright 1988, Gaussian, Inc.),
 the Gaussian 86(TM) system (copyright 1986, Carnegie Mellon
 University), and the Gaussian 82(TM) system (copyright 1983,
 Carnegie Mellon University). Gaussian is a federally registered
 trademark of Gaussian, Inc.
  
 This software contains proprietary and confidential information,
 including trade secrets, belonging to Gaussian, Inc.
  
 This software is provided under written license and may be
 used, copied, transmitted, or stored only in accord with that
 written license.
  
 The following legend is applicable only to US Government
 contracts under FAR:
  
                    RESTRICTED RIGHTS LEGEND
  
 Use, reproduction and disclosure by the US Government is
 subject to restrictions as set forth in subparagraphs (a)
 and (c) of the Commercial Computer Software - Restricted
 Rights clause in FAR 52.227-19.
  
 Gaussian, Inc.
 340 Quinnipiac St., Bldg. 40, Wallingford CT 06492
  
  
 ---------------------------------------------------------------
 Warning -- This program may not be used in any manner that
 competes with the business of Gaussian, Inc. or will provide
 assistance to any competitor of Gaussian, Inc.  The licensee
 of this program is prohibited from giving any competitor of
 Gaussian, Inc. access to this program.  By using this program,
 the user acknowledges that Gaussian, Inc. is engaged in the
 business of creating and licensing software in the field of
 computational chemistry and represents and warrants to the
 licensee that it is not a competitor of Gaussian, Inc. and that
 it will not use this program in any manner prohibited above.
 ---------------------------------------------------------------
  

 Cite this work as:
 Gaussian 16, Revision A.03,
 M. J. Frisch, G. W. Trucks, H. B. Schlegel, G. E. Scuseria, 
 M. A. Robb, J. R. Cheeseman, G. Scalmani, V. Barone, 
 G. A. Petersson, H. Nakatsuji, X. Li, M. Caricato, A. V. Marenich, 
 J. Bloino, B. G. Janesko, R. Gomperts, B. Mennucci, H. P. Hratchian, 
 J. V. Ortiz, A. F. Izmaylov, J. L. Sonnenberg, D. Williams-Young, 
 F. Ding, F. Lipparini, F. Egidi, J. Goings, B. Peng, A. Petrone, 
 T. Henderson, D. Ranasinghe, V. G. Zakrzewski, J. Gao, N. Rega, 
 G. Zheng, W. Liang, M. Hada, M. Ehara, K. Toyota, R. Fukuda, 
 J. Hasegawa, M. Ishida, T. Nakajima, Y. Honda, O. Kitao, H. Nakai, 
 T. Vreven, K. Throssell, J. A. Montgomery, Jr., J. E. Peralta, 
 F. Ogliaro, M. J. Bearpark, J. J. Heyd, E. N. Brothers, K. N. Kudin, 
 V. N. Staroverov, T. A. Keith, R. Kobayashi, J. Normand, 
 K. Raghavachari, A. P. Rendell, J. C. Burant, S. S. Iyengar, 
 J. Tomasi, M. Cossi, J. M. Millam, M. Klene, C. Adamo, R. Cammi, 
 J. W. Ochterski, R. L. Martin, K. Morokuma, O. Farkas, 
 J. B. Foresman, and D. J. Fox, Gaussian, Inc., Wallingford CT, 2016.
 
 ******************************************
 Gaussian 16:  ES64L-G16RevA.03 25-Dec-2016
                31-Oct-2022 
 ******************************************
 %chk=spec.chk
 %mem=64gb
 %nproc=16
 Will use up to   16 processors via shared memory.
 --------------------------------------------------------
 #P M062X/Gen field=X+8 int=(grid=ultrafine) polar=Dipole
 --------------------------------------------------------
 1/38=1,172=1/1;
 2/12=2,17=6,18=5,40=1/2;
 3/5=7,11=2,14=1,15=8,25=1,30=1,74=-55,75=-5/1,2,3;
 4//1;
 5/5=2,38=5,98=1/2;
 8/6=4,10=90,11=11/1;
 10/6=1,13=10,17=1/2;
 6/7=2,8=2,9=2,10=2,28=1/1;
 99/5=1,9=1/99;
 Leave Link    1 at Mon Oct 31 15:21:52 2022, MaxMem=  8589934592 cpu:               0.9 elap:               0.1
 (Enter /usr/local/gaussian/g16a03/g16/l101.exe)
 ------------
 c4mpyr_eGeom
 ------------
 Symbolic Z-matrix:
 Charge =  1 Multiplicity = 1
 C                    -2.0231   -4.18137  -2.29528 
 C                    -1.51702  -4.48435  -0.89675 
 C                    -0.00788  -4.35061  -1.05271 
 H                    -1.78359  -5.49831  -0.5978 
 H                    -1.94113  -3.79811  -0.16891 
 C                     0.23868  -5.0581   -2.36977 
 H                     0.55427  -4.81453  -0.2468 
 H                     0.28852  -3.30231  -1.10663 
 N                    -0.94145  -4.68569  -3.25851 
 H                     0.21848  -6.13628  -2.23918 
 H                     1.15954  -4.78298  -2.87231 
 H                    -2.1215   -3.11116  -2.4562 
 H                    -2.96459  -4.65832  -2.54631 
 C                    -0.55067  -3.59072  -4.18918 
 H                     0.23702  -3.93912  -4.84894 
 H                    -0.19092  -2.74819  -3.60496 
 H                    -1.41956  -3.29244  -4.77068 
 C                    -1.48832  -5.86965  -4.03146 
 C                    -0.63969  -6.43617  -5.15815 
 H                    -2.43488  -5.52709  -4.44643 
 H                    -1.70453  -6.63103  -3.28204 
 C                     0.70379  -7.06996  -4.80772 
 H                    -0.5104   -5.69187  -5.94615 
 H                    -1.27615  -7.20598  -5.60212 
 C                     1.29289  -7.81708  -5.99755 
 H                     0.57712  -7.75976  -3.96906 
 H                     1.41573  -6.30869  -4.48304 
 H                     0.63383  -8.62436  -6.31742 
 H                     2.25768  -8.25266  -5.7455 
 H                     1.43973  -7.14886  -6.84684 
 
 ITRead=  0  0  0  0  0  0  0  0  0  0  0  0  0  0  0  0  0  0  0  0
 ITRead=  0  0  0  0  0  0  0  0  0  0
 MicOpt= -1 -1 -1 -1 -1 -1 -1 -1 -1 -1 -1 -1 -1 -1 -1 -1 -1 -1 -1 -1
 MicOpt= -1 -1 -1 -1 -1 -1 -1 -1 -1 -1
 NAtoms=     30 NQM=       30 NQMF=       0 NMMI=      0 NMMIF=      0
                NMic=       0 NMicF=      0.
                    Isotopes and Nuclear Properties:
 (Nuclear quadrupole moments (NQMom) in fm**2, nuclear magnetic moments (NMagM)
  in nuclear magnetons)

  Atom         1           2           3           4           5           6           7           8           9          10
 IAtWgt=          12          12          12           1           1          12           1           1          14           1
 AtmWgt=  12.0000000  12.0000000  12.0000000   1.0078250   1.0078250  12.0000000   1.0078250   1.0078250  14.0030740   1.0078250
 NucSpn=           0           0           0           1           1           0           1           1           2           1
 AtZEff=  -0.0000000  -0.0000000  -0.0000000  -0.0000000  -0.0000000  -0.0000000  -0.0000000  -0.0000000  -0.0000000  -0.0000000
 NQMom=    0.0000000   0.0000000   0.0000000   0.0000000   0.0000000   0.0000000   0.0000000   0.0000000   2.0440000   0.0000000
 NMagM=    0.0000000   0.0000000   0.0000000   2.7928460   2.7928460   0.0000000   2.7928460   2.7928460   0.4037610   2.7928460
 AtZNuc=   6.0000000   6.0000000   6.0000000   1.0000000   1.0000000   6.0000000   1.0000000   1.0000000   7.0000000   1.0000000

  Atom        11          12          13          14          15          16          17          18          19          20
 IAtWgt=           1           1           1          12           1           1           1          12          12           1
 AtmWgt=   1.0078250   1.0078250   1.0078250  12.0000000   1.0078250   1.0078250   1.0078250  12.0000000  12.0000000   1.0078250
 NucSpn=           1           1           1           0           1           1           1           0           0           1
 AtZEff=  -0.0000000  -0.0000000  -0.0000000  -0.0000000  -0.0000000  -0.0000000  -0.0000000  -0.0000000  -0.0000000  -0.0000000
 NQMom=    0.0000000   0.0000000   0.0000000   0.0000000   0.0000000   0.0000000   0.0000000   0.0000000   0.0000000   0.0000000
 NMagM=    2.7928460   2.7928460   2.7928460   0.0000000   2.7928460   2.7928460   2.7928460   0.0000000   0.0000000   2.7928460
 AtZNuc=   1.0000000   1.0000000   1.0000000   6.0000000   1.0000000   1.0000000   1.0000000   6.0000000   6.0000000   1.0000000

  Atom        21          22          23          24          25          26          27          28          29          30
 IAtWgt=           1          12           1           1          12           1           1           1           1           1
 AtmWgt=   1.0078250  12.0000000   1.0078250   1.0078250  12.0000000   1.0078250   1.0078250   1.0078250   1.0078250   1.0078250
 NucSpn=           1           0           1           1           0           1           1           1           1           1
 AtZEff=  -0.0000000  -0.0000000  -0.0000000  -0.0000000  -0.0000000  -0.0000000  -0.0000000  -0.0000000  -0.0000000  -0.0000000
 NQMom=    0.0000000   0.0000000   0.0000000   0.0000000   0.0000000   0.0000000   0.0000000   0.0000000   0.0000000   0.0000000
 NMagM=    2.7928460   0.0000000   2.7928460   2.7928460   0.0000000   2.7928460   2.7928460   2.7928460   2.7928460   2.7928460
 AtZNuc=   1.0000000   6.0000000   1.0000000   1.0000000   6.0000000   1.0000000   1.0000000   1.0000000   1.0000000   1.0000000
 Leave Link  101 at Mon Oct 31 15:21:52 2022, MaxMem=  8589934592 cpu:               1.4 elap:               0.1
 (Enter /usr/local/gaussian/g16a03/g16/l202.exe)
                          Input orientation:                          
 ---------------------------------------------------------------------
 Center     Atomic      Atomic             Coordinates (Angstroms)
 Number     Number       Type             X           Y           Z
 ---------------------------------------------------------------------
      1          6           0       -2.023100   -4.181370   -2.295280
      2          6           0       -1.517020   -4.484350   -0.896750
      3          6           0       -0.007880   -4.350610   -1.052710
      4          1           0       -1.783590   -5.498310   -0.597800
      5          1           0       -1.941130   -3.798110   -0.168910
      6          6           0        0.238680   -5.058100   -2.369770
      7          1           0        0.554270   -4.814530   -0.246800
      8          1           0        0.288520   -3.302310   -1.106630
      9          7           0       -0.941450   -4.685690   -3.258510
     10          1           0        0.218480   -6.136280   -2.239180
     11          1           0        1.159540   -4.782980   -2.872310
     12          1           0       -2.121500   -3.111160   -2.456200
     13          1           0       -2.964590   -4.658320   -2.546310
     14          6           0       -0.550670   -3.590720   -4.189180
     15          1           0        0.237020   -3.939120   -4.848940
     16          1           0       -0.190920   -2.748190   -3.604960
     17          1           0       -1.419560   -3.292440   -4.770680
     18          6           0       -1.488320   -5.869650   -4.031460
     19          6           0       -0.639690   -6.436170   -5.158150
     20          1           0       -2.434880   -5.527090   -4.446430
     21          1           0       -1.704530   -6.631030   -3.282040
     22          6           0        0.703790   -7.069960   -4.807720
     23          1           0       -0.510400   -5.691870   -5.946150
     24          1           0       -1.276150   -7.205980   -5.602120
     25          6           0        1.292890   -7.817080   -5.997550
     26          1           0        0.577120   -7.759760   -3.969060
     27          1           0        1.415730   -6.308690   -4.483040
     28          1           0        0.633830   -8.624360   -6.317420
     29          1           0        2.257680   -8.252660   -5.745500
     30          1           0        1.439730   -7.148860   -6.846840
 ---------------------------------------------------------------------
                    Distance matrix (angstroms):
                    1          2          3          4          5
     1  C    0.000000
     2  C    1.517827   0.000000
     3  C    2.373549   1.523061   0.000000
     4  H    2.161743   1.090204   2.162708   0.000000
     5  H    2.162188   1.086529   2.196318   1.760524   0.000000
     6  C    2.426902   2.362511   1.515249   2.724562   3.344089
     7  H    3.352611   2.195836   1.086612   2.460964   2.695589
     8  H    2.743943   2.168235   1.090731   3.061856   2.469104
     9  N    1.533661   2.439207   2.418550   2.906704   3.366420
    10  H    2.974811   2.746443   2.155822   2.666349   3.796969
    11  H    3.289999   3.340058   2.204713   3.787758   4.229952
    12  H    1.086705   2.164008   2.823723   3.044063   2.395022
    13  H    1.084851   2.201539   3.326809   2.428381   2.727538
    14  C    2.470582   3.545772   3.272537   4.249353   4.258986
    15  H    3.418773   4.358181   3.826312   4.958440   5.164001
    16  H    2.669485   3.479539   3.019145   4.375245   3.996499
    17  H    2.698530   4.054316   4.115321   4.734058   4.658758
    18  C    2.480040   3.427286   3.656793   3.466280   4.406314
    19  C    3.897944   4.768526   4.647944   4.794255   5.791858
    20  H    2.570597   3.811824   4.334947   3.903455   4.640080
    21  H    2.660078   3.214499   3.612319   2.914524   4.215803
    22  C    4.700238   5.187780   4.690569   5.136202   6.262520
    23  H    4.230688   5.288462   5.098751   5.501211   6.245784
    24  H    4.543280   5.441121   5.518947   5.311954   6.447910
    25  C    6.158001   6.709757   6.177367   6.633153   7.783576
    26  H    4.729435   4.955080   4.524337   4.696009   6.039652
    27  H    4.597536   4.979028   4.198560   5.097789   6.015251
    28  H    6.555688   7.151888   6.811307   6.951990   8.229659
    29  H    6.841381   7.208252   6.510072   7.100502   8.280784
    30  H    6.443127   7.158600   6.595280   7.222507   8.200761
                    6          7          8          9         10
     6  C    0.000000
     7  H    2.160075   0.000000
     8  H    2.163517   1.759756   0.000000
     9  N    1.523566   3.365141   2.838513   0.000000
    10  H    1.086248   2.414406   3.052697   2.118651   0.000000
    11  H    1.084537   2.694559   2.463470   2.138405   1.765749
    12  H    3.060800   3.865574   2.768768   2.124939   3.830660
    13  H    3.232944   4.206486   3.807120   2.145011   3.522872
    14  C    2.467089   4.273285   3.207730   1.489233   3.297570
    15  H    2.720001   4.695390   3.796454   2.115568   3.411554
    16  H    2.654418   4.012768   2.603568   2.106473   3.675883
    17  H    3.410525   5.165100   4.042635   2.111017   4.144767
    18  C    2.530288   4.428217   4.278204   1.516008   2.489282
    19  C    3.231977   5.308165   5.205523   2.600744   3.057250
    20  H    3.417659   5.203811   4.849827   2.085531   3.504766
    21  H    2.661280   4.196967   4.448037   2.089783   2.242833
    22  C    3.194919   5.090316   5.297707   3.285059   2.775731
    23  H    3.708541   5.863944   5.456118   2.902001   3.803997
    24  H    4.166075   6.144015   6.155994   3.457802   3.832433
    25  C    4.678046   6.529318   6.731494   4.722311   4.254972
    26  H    3.157727   4.746591   5.305248   3.501549   2.399332
    27  H    2.723111   4.573878   4.659299   3.112860   2.549125
    28  H    5.334632   7.167535   7.456258   5.229872   4.795321
    29  H    5.067260   6.705076   7.064182   5.398410   4.575115
    30  H    5.085072   7.056463   7.005087   4.961183   4.873120
                   11         12         13         14         15
    11  H    0.000000
    12  H    3.705854   0.000000
    13  H    4.138872   1.764263   0.000000
    14  C    2.465857   2.387615   3.108987   0.000000
    15  H    2.338848   3.460251   4.008698   1.084952   0.000000
    16  H    2.549684   2.275640   3.530238   1.086550   1.774523
    17  H    3.532319   2.425366   3.033244   1.087236   1.780050
    18  C    3.087984   3.239078   2.419166   2.469329   2.715146
    19  C    3.345942   4.533430   3.922706   3.007227   2.664487
    20  H    3.993921   3.145781   2.155414   2.714029   3.134121
    21  H    3.433084   3.639418   2.453698   3.376060   3.670309
    22  C    3.030478   5.402222   4.938319   3.749850   3.165712
    23  H    3.614315   4.629844   4.318586   2.739233   2.198781
    24  H    4.388095   5.232493   4.321964   3.948775   3.678225
    25  C    4.357829   6.807709   6.325738   4.952881   4.180041
    26  H    3.225414   5.583975   4.918014   4.324495   3.935371
    27  H    2.233355   5.181146   5.065752   3.367558   2.671723
    28  H    5.186652   7.272980   6.549761   5.591956   4.925989
    29  H    4.636789   7.512106   7.101141   5.660622   4.847011
    30  H    4.633873   6.947165   6.640435   4.866745   3.967436
                   16         17         18         19         20
    16  H    0.000000
    17  H    1.778951   0.000000
    18  C    3.407149   2.682011   0.000000
    19  C    4.026784   3.262111   1.520049   0.000000
    20  H    3.669566   2.475818   1.088817   2.134404   0.000000
    21  H    4.179921   3.666530   1.089989   2.166020   1.762923
    22  C    4.574367   4.333549   2.616996   1.526247   3.515996
    23  H    3.774717   2.822333   2.157306   1.091624   2.445391
    24  H    5.003825   4.003455   2.073106   1.093068   2.344557
    25  C    5.798261   5.416176   3.923407   2.519200   4.641799
    26  H    5.083138   4.958455   2.800438   2.155563   3.779529
    27  H    4.003687   4.149623   2.971563   2.167205   3.929305
    28  H    6.524341   5.919306   4.161437   2.784589   4.744541
    29  H    6.393492   6.251092   4.759116   3.469779   5.580003
    30  H    5.703920   5.230483   4.258664   2.771929   4.837841
                   21         22         23         24         25
    21  H    0.000000
    22  C    2.884504   0.000000
    23  H    3.066831   2.160882   0.000000
    24  H    2.428343   2.137694   1.731259   0.000000
    25  C    4.214883   1.523457   2.787654   2.670164   0.000000
    26  H    2.636656   1.093261   3.060679   2.531436   2.151833
    27  H    3.358917   1.091699   2.496224   3.050195   2.141044
    28  H    4.319123   2.168006   3.169637   2.484246   1.090127
    29  H    4.939375   2.166284   3.776264   3.688367   1.088154
    30  H    4.781456   2.169296   2.595587   2.988075   1.090584
                   26         27         28         29         30
    26  H    0.000000
    27  H    1.753011   0.000000
    28  H    2.503107   3.055920   0.000000
    29  H    2.494588   2.466111   1.761290   0.000000
    30  H    3.065765   2.508787   1.762629   1.760786   0.000000
 Stoichiometry    C9H20N(1+)
 Framework group  C1[X(C9H20N)]
 Deg. of freedom    84
 Full point group                 C1      NOp   1
 Largest Abelian subgroup         C1      NOp   1
 Largest concise Abelian subgroup C1      NOp   1
                         Standard orientation:                         
 ---------------------------------------------------------------------
 Center     Atomic      Atomic             Coordinates (Angstroms)
 Number     Number       Type             X           Y           Z
 ---------------------------------------------------------------------
      1          6           0        2.068148   -0.836663   -0.439403
      2          6           0        2.764771    0.478088   -0.739315
      3          6           0        2.224295    1.396812    0.348594
      4          1           0        2.488263    0.848413   -1.726709
      5          1           0        3.845029    0.364149   -0.714722
      6          6           0        0.752388    1.037353    0.364768
      7          1           0        2.368087    2.452612    0.135668
      8          1           0        2.693086    1.182873    1.309925
      9          7           0        0.699480   -0.469681    0.147274
     10          1           0        0.231460    1.503279   -0.466785
     11          1           0        0.231646    1.279626    1.284742
     12          1           0        2.601338   -1.401484    0.320605
     13          1           0        1.918126   -1.474004   -1.304384
     14          6           0        0.511614   -1.164642    1.450942
     15          1           0       -0.443141   -0.879203    1.879999
     16          1           0        1.314875   -0.871554    2.121361
     17          1           0        0.540819   -2.239135    1.287559
     18          6           0       -0.379821   -0.881614   -0.834408
     19          6           0       -1.828647   -0.754423   -0.392509
     20          1           0       -0.175222   -1.926590   -1.061755
     21          1           0       -0.191553   -0.297435   -1.735167
     22          6           0       -2.382049    0.639422   -0.109008
     23          1           0       -2.026607   -1.416786    0.452316
     24          1           0       -2.393385   -1.184638   -1.223644
     25          6           0       -3.896189    0.612867    0.057110
     26          1           0       -2.115685    1.313982   -0.927078
     27          1           0       -1.936118    1.053842    0.797198
     28          1           0       -4.382792    0.255715   -0.850656
     29          1           0       -4.281971    1.606786    0.274771
     30          1           0       -4.189676   -0.045886    0.875208
 ---------------------------------------------------------------------
 Rotational constants (GHZ):           2.4796908           0.7142451           0.6647787
 Leave Link  202 at Mon Oct 31 15:21:52 2022, MaxMem=  8589934592 cpu:               0.2 elap:               0.0
 (Enter /usr/local/gaussian/g16a03/g16/l301.exe)
 General basis read from cards:  (5D, 7F)
 Centers:       4      5      7      8     10     11     12     13     15     16
 Centers:      17     20     21     23     24     26     27     28     29     30
 S 4 1.00
     Exponent=  3.3685014000D+01 Coefficients=  6.0680000000D-03
     Exponent=  5.0947880000D+00 Coefficients=  4.5316000000D-02
     Exponent=  1.1587860000D+00 Coefficients=  2.0284600000D-01
     Exponent=  3.2584000000D-01 Coefficients=  5.0370900000D-01
 S 1 1.00
     Exponent=  1.0274100000D-01 Coefficients=  1.0000000000D+00
 S 1 1.00
     Exponent=  3.2400000000D-02 Coefficients=  1.0000000000D+00
 P 2 1.00
     Exponent=  1.1588000000D+00 Coefficients=  1.8844000000D-01
     Exponent=  3.2580000000D-01 Coefficients=  8.8242000000D-01
 P 2 1.00
     Exponent=  1.0270000000D-01 Coefficients=  1.1780000000D-01
     Exponent=  3.2400000000D-02 Coefficients=  4.2000000000D-03
 ****
 Centers:       1      2      3      6     14     18     19     22     25
 S 5 1.00
     Exponent=  5.2406353000D+03 Coefficients=  9.3700000000D-04
     Exponent=  7.8220480000D+02 Coefficients=  7.2280000000D-03
     Exponent=  1.7835083000D+02 Coefficients=  3.6344000000D-02
     Exponent=  5.0815942000D+01 Coefficients=  1.3060000000D-01
     Exponent=  1.6823562000D+01 Coefficients=  3.1893100000D-01
 S 2 1.00
     Exponent=  6.1757760000D+00 Coefficients=  4.3874200000D-01
     Exponent=  2.4180490000D+00 Coefficients=  2.1497400000D-01
 S 1 1.00
     Exponent=  5.1190000000D-01 Coefficients=  1.0000000000D+00
 S 1 1.00
     Exponent=  1.5659000000D-01 Coefficients=  1.0000000000D+00
 S 1 1.00
     Exponent=  4.7900000000D-02 Coefficients=  1.0000000000D+00
 P 4 1.00
     Exponent=  1.8841800000D+01 Coefficients=  1.3887000000D-02
     Exponent=  4.1592400000D+00 Coefficients=  8.6279000000D-02
     Exponent=  1.2067100000D+00 Coefficients=  2.8874400000D-01
     Exponent=  3.8554000000D-01 Coefficients=  4.9941100000D-01
 P 1 1.00
     Exponent=  1.2194000000D-01 Coefficients=  1.0000000000D+00
 P 1 1.00
     Exponent=  3.8568000000D-02 Coefficients=  1.0000000000D+00
 D 2 1.00
     Exponent=  1.2067100000D+00 Coefficients=  2.6285200000D-01
     Exponent=  3.8554000000D-01 Coefficients=  8.0430000000D-01
 D 2 1.00
     Exponent=  1.2194000000D-01 Coefficients=  6.5350000000D-01
     Exponent=  3.8658000000D-02 Coefficients=  8.6360000000D-01
 ****
 Centers:       9
 S 5 1.00
     Exponent=  8.1040716000D+03 Coefficients=  8.0200000000D-04
     Exponent=  1.2160215000D+03 Coefficients=  6.1740000000D-03
     Exponent=  2.7723428000D+02 Coefficients=  3.1233000000D-02
     Exponent=  7.6904023000D+01 Coefficients=  1.1519800000D-01
     Exponent=  2.5874419000D+01 Coefficients=  2.9695100000D-01
 S 2 1.00
     Exponent=  9.3467670000D+00 Coefficients=  4.4734900000D-01
     Exponent=  3.5797940000D+00 Coefficients=  2.4500300000D-01
 S 1 1.00
     Exponent=  7.3961000000D-01 Coefficients=  1.0000000000D+00
 S 1 1.00
     Exponent=  2.2261700000D-01 Coefficients=  1.0000000000D+00
 S 1 1.00
     Exponent=  6.7006000000D-02 Coefficients=  1.0000000000D+00
 P 4 1.00
     Exponent=  2.6868987000D+01 Coefficients=  1.4478000000D-02
     Exponent=  5.9912270000D+00 Coefficients=  9.1156000000D-02
     Exponent=  1.7508420000D+00 Coefficients=  2.9742000000D-01
     Exponent=  5.6051100000D-01 Coefficients=  4.9379600000D-01
 P 1 1.00
     Exponent=  1.7594800000D-01 Coefficients=  1.0000000000D+00
 P 1 1.00
     Exponent=  5.5231000000D-02 Coefficients=  1.0000000000D+00
 D 2 1.00
     Exponent=  1.7508420000D+00 Coefficients=  2.2477400000D-01
     Exponent=  5.6051100000D-01 Coefficients=  6.5956200000D-01
 D 2 1.00
     Exponent=  1.7594800000D-01 Coefficients=  8.7135500000D-01
     Exponent=  5.5231000000D-02 Coefficients=  7.0421700000D-01
 ****
 Ernie: Thresh=  0.10000D-02 Tol=  0.10000D-05 Strict=F.
 The following finite field(s) will be applied:
 An electric field of              0.0008  0.0000  0.0000
 In input orientation: -2.66081208D-04  4.63601445D-04  5.95209619D-04
 There are   440 symmetry adapted cartesian basis functions of A   symmetry.
 There are   420 symmetry adapted basis functions of A   symmetry.
   420 basis functions,   880 primitive gaussians,   440 cartesian basis functions
    40 alpha electrons       40 beta electrons
       nuclear repulsion energy       604.8043466459 Hartrees.
 IExCor= 4336 DFT=T Ex+Corr=M062X ExCW=0 ScaHFX=  0.540000
 ScaDFX=  1.000000  1.000000  1.000000  1.000000 ScalE2=  1.000000  1.000000
 IRadAn=      5 IRanWt=     -1 IRanGd=            0 ICorTp=0 IEmpDi=  4
 NAtoms=   30 NActive=   30 NUniq=   30 SFac= 1.00D+00 NAtFMM=   60 NAOKFM=F Big=F
 Integral buffers will be    131072 words long.
 Raffenetti 2 integral format.
 Two-electron integral symmetry is turned on.
 Leave Link  301 at Mon Oct 31 15:21:52 2022, MaxMem=  8589934592 cpu:               1.0 elap:               0.1
 (Enter /usr/local/gaussian/g16a03/g16/l302.exe)
 NPDir=0 NMtPBC=     1 NCelOv=     1 NCel=       1 NClECP=     1 NCelD=      1
         NCelK=      1 NCelE2=     1 NClLst=     1 CellRange=     0.0.
 One-electron integrals computed using PRISM.
 One-electron integral symmetry used in STVInt
 NBasis=   420 RedAO= T EigKep=  2.49D-06  NBF=   420
 NBsUse=   420 1.00D-06 EigRej= -1.00D+00 NBFU=   420
 Precomputing XC quadrature grid using
 IXCGrd= 4 IRadAn=           5 IRanWt=          -1 IRanGd=           0 AccXCQ= 0.00D+00.
 Generated NRdTot=       0 NPtTot=           0 NUsed=           0 NTot=          32
 NSgBfM=   438   438   438   438   438 MxSgAt=    30 MxSgA2=    30.
 Leave Link  302 at Mon Oct 31 15:21:53 2022, MaxMem=  8589934592 cpu:               5.6 elap:               0.4
 (Enter /usr/local/gaussian/g16a03/g16/l303.exe)
 DipDrv:  MaxL=1.
 The nuclear repulsion energy is now       604.8043466459 hartrees.
 Leave Link  303 at Mon Oct 31 15:21:53 2022, MaxMem=  8589934592 cpu:               1.0 elap:               0.1
 (Enter /usr/local/gaussian/g16a03/g16/l401.exe)
 ExpMin= 3.24D-02 ExpMax= 8.10D+03 ExpMxC= 1.22D+03 IAcc=3 IRadAn=         5 AccDes= 0.00D+00
 Harris functional with IExCor= 1009 and IRadAn=       5 diagonalized for initial guess.
 HarFok:  IExCor= 1009 AccDes= 0.00D+00 IRadAn=         5 IDoV= 1 UseB2=F ITyADJ=14
 ICtDFT=  3500011 ScaDFX=  1.000000  1.000000  1.000000  1.000000
 FoFCou: FMM=F IPFlag=           0 FMFlag=      100000 FMFlg1=           0
         NFxFlg=           0 DoJE=T BraDBF=F KetDBF=T FulRan=T
         wScrn=  0.000000 ICntrl=       500 IOpCl=  0 I1Cent=   200000004 NGrid=           0
         NMat0=    1 NMatS0=      1 NMatT0=    0 NMatD0=    1 NMtDS0=    0 NMtDT0=    0
 Petite list used in FoFCou.
 Harris En= -409.285493417665    
 JPrj=0 DoOrth=F DoCkMO=F.
 Leave Link  401 at Mon Oct 31 15:21:55 2022, MaxMem=  8589934592 cpu:              24.9 elap:               1.6
 (Enter /usr/local/gaussian/g16a03/g16/l502.exe)
 Integral symmetry usage will be decided dynamically.
 Closed shell SCF:
 Using DIIS extrapolation, IDIIS=  1040.
 NGot=  8589934592 LenX=  8589535990 LenY=  8589341949
 Requested convergence on RMS density matrix=1.00D-08 within 128 cycles.
 Requested convergence on MAX density matrix=1.00D-06.
 Requested convergence on             energy=1.00D-06.
 No special actions if energy rises.
 Fock matrices will be formed incrementally for  20 cycles.

 Cycle   1  Pass 1  IDiag  1:
 FoFJK:  IHMeth= 1 ICntrl=       0 DoSepK=F KAlg= 0 I1Cent=           0 FoldK=F
 IRaf= 990000000 NMat=       1 IRICut=       1 DoRegI=T DoRafI=F ISym2E= 0 IDoP0=0 IntGTp=1.
 FoFCou: FMM=F IPFlag=           0 FMFlag=      100000 FMFlg1=           0
         NFxFlg=           0 DoJE=F BraDBF=F KetDBF=F FulRan=T
         wScrn=  0.000000 ICntrl=         0 IOpCl=  0 I1Cent=           0 NGrid=           0
         NMat0=    1 NMatS0=      1 NMatT0=    0 NMatD0=    1 NMtDS0=    0 NMtDT0=    0
 Symmetry not used in FoFCou.
 E= -409.084433442817    
 DIIS: error= 1.69D-02 at cycle   1 NSaved=   1.
 NSaved= 1 IEnMin= 1 EnMin= -409.084433442817     IErMin= 1 ErrMin= 1.69D-02
 ErrMax= 1.69D-02  0.00D+00 EMaxC= 1.00D-01 BMatC= 3.49D-01 BMatP= 3.49D-01
 IDIUse=3 WtCom= 8.31D-01 WtEn= 1.69D-01
 Coeff-Com:  0.100D+01
 Coeff-En:   0.100D+01
 Coeff:      0.100D+01
 Gap=     0.387 Goal=   None    Shift=    0.000
 GapD=    0.387 DampG=1.000 DampE=0.500 DampFc=0.5000 IDamp=-1.
 Damping current iteration by 5.00D-01
 RMSDP=8.49D-02 MaxDP=4.72D+00              OVMax= 1.48D-01

 Cycle   2  Pass 1  IDiag  1:
 RMSU=  1.24D-02    CP:  7.97D-01
 E= -409.244827625589     Delta-E=       -0.160394182773 Rises=F Damp=T
 DIIS: error= 4.96D-03 at cycle   2 NSaved=   2.
 NSaved= 2 IEnMin= 2 EnMin= -409.244827625589     IErMin= 2 ErrMin= 4.96D-03
 ErrMax= 4.96D-03  0.00D+00 EMaxC= 1.00D-01 BMatC= 2.58D-02 BMatP= 3.49D-01
 IDIUse=3 WtCom= 9.50D-01 WtEn= 4.96D-02
 Coeff-Com: -0.720D-01 0.107D+01
 Coeff-En:   0.000D+00 0.100D+01
 Coeff:     -0.684D-01 0.107D+01
 Gap=     0.407 Goal=   None    Shift=    0.000
 RMSDP=2.04D-02 MaxDP=1.13D+00 DE=-1.60D-01 OVMax= 7.13D-02

 Cycle   3  Pass 1  IDiag  1:
 RMSU=  9.95D-03    CP:  7.13D-01  1.46D+00
 E= -409.396472489278     Delta-E=       -0.151644863688 Rises=F Damp=F
 DIIS: error= 3.34D-03 at cycle   3 NSaved=   3.
 NSaved= 3 IEnMin= 3 EnMin= -409.396472489278     IErMin= 3 ErrMin= 3.34D-03
 ErrMax= 3.34D-03  0.00D+00 EMaxC= 1.00D-01 BMatC= 7.32D-03 BMatP= 2.58D-02
 IDIUse=3 WtCom= 9.67D-01 WtEn= 3.34D-02
 Coeff-Com: -0.746D-01 0.365D+00 0.710D+00
 Coeff-En:   0.000D+00 0.000D+00 0.100D+01
 Coeff:     -0.721D-01 0.352D+00 0.720D+00
 Gap=     0.392 Goal=   None    Shift=    0.000
 RMSDP=3.34D-03 MaxDP=2.66D-01 DE=-1.52D-01 OVMax= 1.72D-02

 Cycle   4  Pass 1  IDiag  1:
 RMSU=  1.88D-03    CP:  7.27D-01  1.49D+00  9.36D-01
 E= -409.401145284428     Delta-E=       -0.004672795151 Rises=F Damp=F
 DIIS: error= 1.20D-03 at cycle   4 NSaved=   4.
 NSaved= 4 IEnMin= 4 EnMin= -409.401145284428     IErMin= 4 ErrMin= 1.20D-03
 ErrMax= 1.20D-03  0.00D+00 EMaxC= 1.00D-01 BMatC= 1.52D-03 BMatP= 7.32D-03
 IDIUse=3 WtCom= 9.88D-01 WtEn= 1.20D-02
 Coeff-Com: -0.251D-01 0.736D-01 0.352D+00 0.600D+00
 Coeff-En:   0.000D+00 0.000D+00 0.141D+00 0.859D+00
 Coeff:     -0.248D-01 0.727D-01 0.349D+00 0.603D+00
 Gap=     0.389 Goal=   None    Shift=    0.000
 RMSDP=1.13D-03 MaxDP=9.17D-02 DE=-4.67D-03 OVMax= 5.96D-03

 Cycle   5  Pass 1  IDiag  1:
 RMSU=  1.02D-03    CP:  7.24D-01  1.50D+00  9.20D-01  8.91D-01
 E= -409.402454116141     Delta-E=       -0.001308831713 Rises=F Damp=F
 DIIS: error= 1.61D-04 at cycle   5 NSaved=   5.
 NSaved= 5 IEnMin= 5 EnMin= -409.402454116141     IErMin= 5 ErrMin= 1.61D-04
 ErrMax= 1.61D-04  0.00D+00 EMaxC= 1.00D-01 BMatC= 3.11D-05 BMatP= 1.52D-03
 IDIUse=3 WtCom= 9.98D-01 WtEn= 1.61D-03
 Coeff-Com: -0.394D-02 0.592D-02 0.767D-01 0.199D+00 0.722D+00
 Coeff-En:   0.000D+00 0.000D+00 0.000D+00 0.000D+00 0.100D+01
 Coeff:     -0.393D-02 0.591D-02 0.765D-01 0.199D+00 0.722D+00
 Gap=     0.390 Goal=   None    Shift=    0.000
 RMSDP=2.04D-04 MaxDP=2.23D-02 DE=-1.31D-03 OVMax= 9.71D-04

 Cycle   6  Pass 1  IDiag  1:
 RMSU=  1.77D-04    CP:  7.24D-01  1.50D+00  9.23D-01  8.87D-01  9.18D-01
 E= -409.402483123706     Delta-E=       -0.000029007564 Rises=F Damp=F
 DIIS: error= 2.77D-05 at cycle   6 NSaved=   6.
 NSaved= 6 IEnMin= 6 EnMin= -409.402483123706     IErMin= 6 ErrMin= 2.77D-05
 ErrMax= 2.77D-05  0.00D+00 EMaxC= 1.00D-01 BMatC= 2.02D-06 BMatP= 3.11D-05
 IDIUse=1 WtCom= 1.00D+00 WtEn= 0.00D+00
 Coeff-Com:  0.854D-04-0.207D-02 0.904D-02 0.388D-01 0.250D+00 0.704D+00
 Coeff:      0.854D-04-0.207D-02 0.904D-02 0.388D-01 0.250D+00 0.704D+00
 Gap=     0.390 Goal=   None    Shift=    0.000
 RMSDP=7.82D-05 MaxDP=3.48D-03 DE=-2.90D-05 OVMax= 2.40D-04

 Cycle   7  Pass 1  IDiag  1:
 RMSU=  7.32D-05    CP:  7.24D-01  1.50D+00  9.23D-01  8.95D-01  9.26D-01
                    CP:  9.89D-01
 E= -409.402484969715     Delta-E=       -0.000001846009 Rises=F Damp=F
 DIIS: error= 9.08D-06 at cycle   7 NSaved=   7.
 NSaved= 7 IEnMin= 7 EnMin= -409.402484969715     IErMin= 7 ErrMin= 9.08D-06
 ErrMax= 9.08D-06  0.00D+00 EMaxC= 1.00D-01 BMatC= 1.55D-07 BMatP= 2.02D-06
 IDIUse=1 WtCom= 1.00D+00 WtEn= 0.00D+00
 Coeff-Com:  0.624D-03-0.147D-02-0.759D-02-0.164D-01-0.234D-01 0.200D+00
 Coeff-Com:  0.848D+00
 Coeff:      0.624D-03-0.147D-02-0.759D-02-0.164D-01-0.234D-01 0.200D+00
 Coeff:      0.848D+00
 Gap=     0.390 Goal=   None    Shift=    0.000
 RMSDP=2.75D-05 MaxDP=1.26D-03 DE=-1.85D-06 OVMax= 8.54D-05

 Cycle   8  Pass 1  IDiag  1:
 RMSU=  1.60D-05    CP:  7.24D-01  1.50D+00  9.23D-01  8.98D-01  9.45D-01
                    CP:  1.04D+00  9.74D-01
 E= -409.402485151135     Delta-E=       -0.000000181420 Rises=F Damp=F
 DIIS: error= 1.40D-06 at cycle   8 NSaved=   8.
 NSaved= 8 IEnMin= 8 EnMin= -409.402485151135     IErMin= 8 ErrMin= 1.40D-06
 ErrMax= 1.40D-06  0.00D+00 EMaxC= 1.00D-01 BMatC= 3.26D-09 BMatP= 1.55D-07
 IDIUse=1 WtCom= 1.00D+00 WtEn= 0.00D+00
 Coeff-Com:  0.143D-03-0.294D-03-0.200D-02-0.486D-02-0.122D-01 0.238D-01
 Coeff-Com:  0.188D+00 0.808D+00
 Coeff:      0.143D-03-0.294D-03-0.200D-02-0.486D-02-0.122D-01 0.238D-01
 Coeff:      0.188D+00 0.808D+00
 Gap=     0.390 Goal=   None    Shift=    0.000
 RMSDP=4.55D-06 MaxDP=2.92D-04 DE=-1.81D-07 OVMax= 1.29D-05

 Cycle   9  Pass 1  IDiag  1:
 RMSU=  3.86D-06    CP:  7.24D-01  1.50D+00  9.23D-01  8.99D-01  9.46D-01
                    CP:  1.04D+00  9.85D-01  9.74D-01
 E= -409.402485154513     Delta-E=       -0.000000003378 Rises=F Damp=F
 DIIS: error= 5.48D-07 at cycle   9 NSaved=   9.
 NSaved= 9 IEnMin= 9 EnMin= -409.402485154513     IErMin= 9 ErrMin= 5.48D-07
 ErrMax= 5.48D-07  0.00D+00 EMaxC= 1.00D-01 BMatC= 4.42D-10 BMatP= 3.26D-09
 IDIUse=1 WtCom= 1.00D+00 WtEn= 0.00D+00
 Coeff-Com:  0.137D-04-0.196D-04-0.258D-03-0.736D-03-0.289D-02-0.350D-02
 Coeff-Com:  0.139D-01 0.281D+00 0.713D+00
 Coeff:      0.137D-04-0.196D-04-0.258D-03-0.736D-03-0.289D-02-0.350D-02
 Coeff:      0.139D-01 0.281D+00 0.713D+00
 Gap=     0.390 Goal=   None    Shift=    0.000
 RMSDP=1.27D-06 MaxDP=6.66D-05 DE=-3.38D-09 OVMax= 4.05D-06

 Cycle  10  Pass 1  IDiag  1:
 RMSU=  8.80D-07    CP:  7.24D-01  1.50D+00  9.23D-01  8.99D-01  9.46D-01
                    CP:  1.04D+00  9.88D-01  1.01D+00  9.50D-01
 E= -409.402485154913     Delta-E=       -0.000000000401 Rises=F Damp=F
 DIIS: error= 1.30D-07 at cycle  10 NSaved=  10.
 NSaved=10 IEnMin=10 EnMin= -409.402485154913     IErMin=10 ErrMin= 1.30D-07
 ErrMax= 1.30D-07  0.00D+00 EMaxC= 1.00D-01 BMatC= 3.52D-11 BMatP= 4.42D-10
 IDIUse=1 WtCom= 1.00D+00 WtEn= 0.00D+00
 Coeff-Com: -0.794D-05 0.195D-04 0.927D-04 0.195D-03 0.203D-03-0.304D-02
 Coeff-Com: -0.125D-01 0.198D-01 0.241D+00 0.754D+00
 Coeff:     -0.794D-05 0.195D-04 0.927D-04 0.195D-03 0.203D-03-0.304D-02
 Coeff:     -0.125D-01 0.198D-01 0.241D+00 0.754D+00
 Gap=     0.390 Goal=   None    Shift=    0.000
 RMSDP=3.12D-07 MaxDP=2.31D-05 DE=-4.01D-10 OVMax= 1.23D-06

 Cycle  11  Pass 1  IDiag  1:
 RMSU=  1.93D-07    CP:  7.24D-01  1.50D+00  9.23D-01  8.99D-01  9.47D-01
                    CP:  1.04D+00  9.87D-01  1.02D+00  9.88D-01  9.16D-01
 E= -409.402485154980     Delta-E=       -0.000000000066 Rises=F Damp=F
 DIIS: error= 2.91D-08 at cycle  11 NSaved=  11.
 NSaved=11 IEnMin=11 EnMin= -409.402485154980     IErMin=11 ErrMin= 2.91D-08
 ErrMax= 2.91D-08  0.00D+00 EMaxC= 1.00D-01 BMatC= 1.12D-12 BMatP= 3.52D-11
 IDIUse=1 WtCom= 1.00D+00 WtEn= 0.00D+00
 Coeff-Com: -0.236D-05 0.546D-05 0.332D-04 0.783D-04 0.175D-03-0.541D-03
 Coeff-Com: -0.367D-02-0.855D-02 0.266D-01 0.190D+00 0.796D+00
 Coeff:     -0.236D-05 0.546D-05 0.332D-04 0.783D-04 0.175D-03-0.541D-03
 Coeff:     -0.367D-02-0.855D-02 0.266D-01 0.190D+00 0.796D+00
 Gap=     0.390 Goal=   None    Shift=    0.000
 RMSDP=5.95D-08 MaxDP=3.20D-06 DE=-6.63D-11 OVMax= 2.18D-07

 Cycle  12  Pass 1  IDiag  1:
 RMSU=  5.36D-08    CP:  7.24D-01  1.50D+00  9.23D-01  8.99D-01  9.46D-01
                    CP:  1.04D+00  9.87D-01  1.02D+00  9.89D-01  9.27D-01
                    CP:  9.33D-01
 E= -409.402485154949     Delta-E=        0.000000000030 Rises=F Damp=F
 DIIS: error= 6.93D-09 at cycle  12 NSaved=  12.
 NSaved=12 IEnMin=11 EnMin= -409.402485154980     IErMin=12 ErrMin= 6.93D-09
 ErrMax= 6.93D-09  0.00D+00 EMaxC= 1.00D-01 BMatC= 1.03D-13 BMatP= 1.12D-12
 IDIUse=1 WtCom= 1.00D+00 WtEn= 0.00D+00
 Coeff-Com: -0.170D-06 0.383D-06 0.379D-05 0.105D-04 0.348D-04 0.181D-04
 Coeff-Com: -0.360D-03-0.377D-02-0.652D-02 0.112D-01 0.249D+00 0.751D+00
 Coeff:     -0.170D-06 0.383D-06 0.379D-05 0.105D-04 0.348D-04 0.181D-04
 Coeff:     -0.360D-03-0.377D-02-0.652D-02 0.112D-01 0.249D+00 0.751D+00
 Gap=     0.390 Goal=   None    Shift=    0.000
 RMSDP=1.77D-08 MaxDP=8.70D-07 DE= 3.02D-11 OVMax= 6.94D-08

 Cycle  13  Pass 1  IDiag  1:
 RMSU=  1.53D-08    CP:  7.24D-01  1.50D+00  9.23D-01  8.99D-01  9.47D-01
                    CP:  1.04D+00  9.87D-01  1.02D+00  9.89D-01  9.30D-01
                    CP:  9.53D-01  9.08D-01
 E= -409.402485154965     Delta-E=       -0.000000000015 Rises=F Damp=F
 DIIS: error= 2.22D-09 at cycle  13 NSaved=  13.
 NSaved=13 IEnMin=11 EnMin= -409.402485154980     IErMin=13 ErrMin= 2.22D-09
 ErrMax= 2.22D-09  0.00D+00 EMaxC= 1.00D-01 BMatC= 8.91D-15 BMatP= 1.03D-13
 IDIUse=1 WtCom= 1.00D+00 WtEn= 0.00D+00
 Coeff-Com:  0.115D-06-0.258D-06-0.104D-05-0.196D-05-0.708D-06 0.493D-04
 Coeff-Com:  0.146D-03-0.730D-03-0.432D-02-0.102D-01 0.271D-01 0.259D+00
 Coeff-Com:  0.729D+00
 Coeff:      0.115D-06-0.258D-06-0.104D-05-0.196D-05-0.708D-06 0.493D-04
 Coeff:      0.146D-03-0.730D-03-0.432D-02-0.102D-01 0.271D-01 0.259D+00
 Coeff:      0.729D+00
 Gap=     0.390 Goal=   None    Shift=    0.000
 RMSDP=4.60D-09 MaxDP=2.59D-07 DE=-1.53D-11 OVMax= 2.02D-08

 SCF Done:  E(RM062X) =  -409.402485155     A.U. after   13 cycles
            NFock= 13  Conv=0.46D-08     -V/T= 2.0063
 KE= 4.068483025990D+02 PE=-2.142995574065D+03 EE= 7.219404396652D+02
 Leave Link  502 at Mon Oct 31 15:24:32 2022, MaxMem=  8589934592 cpu:            2515.7 elap:             157.3
 (Enter /usr/local/gaussian/g16a03/g16/l801.exe)
 DoSCS=F DFT=T ScalE2(SS,OS)=  1.000000  1.000000
 Range of M.O.s used for correlation:     1   420
 NBasis=   420 NAE=    40 NBE=    40 NFC=     0 NFV=     0
 NROrb=    420 NOA=    40 NOB=    40 NVA=   380 NVB=   380

 **** Warning!!: The largest alpha MO coefficient is  0.96459633D+02

 Leave Link  801 at Mon Oct 31 15:24:32 2022, MaxMem=  8589934592 cpu:               0.3 elap:               0.0
 (Enter /usr/local/gaussian/g16a03/g16/l1002.exe)
 Minotr:  Closed shell wavefunction.
          Direct CPHF calculation.
          Differentiating once with respect to electric field.
                with respect to dipole field.
          Electric field/nuclear overlap derivatives assumed to be zero.
          Requested convergence is 1.0D-08 RMS, and 1.0D-07 maximum.
          Secondary convergence is 1.0D-12 RMS, and 1.0D-12 maximum.
          NewPWx=F KeepS1=T KeepF1=T KeepIn=T MapXYZ=F SortEE=F KeepMc=T.
         9298 words used for storage of precomputed grid.
 Two-electron integral symmetry used by symmetrizing perturbed Fock matrices.
          MDV=    8589934592 using IRadAn=       1.
          Solving linear equations simultaneously, MaxMat=     384.
          There are     3 degrees of freedom in the 1st order CPHF.  IDoFFX=0 NUNeed=     3.
      3 vectors produced by pass  0 Test12= 5.07D-13 3.33D-08 XBig12= 4.80D+01 8.70D-01.
 AX will form     3 AO Fock derivatives at one time.
 FoFJK:  IHMeth= 1 ICntrl=       0 DoSepK=F KAlg= 0 I1Cent=           0 FoldK=F
 IRaf= 980000000 NMat=       3 IRICut=       1 DoRegI=T DoRafI=F ISym2E=-1 IDoP0=0 IntGTp=1.
 FoFCou: FMM=F IPFlag=           0 FMFlag=      100000 FMFlg1=           0
         NFxFlg=           0 DoJE=F BraDBF=F KetDBF=F FulRan=T
         wScrn=  0.000000 ICntrl=         0 IOpCl=  0 I1Cent=           0 NGrid=           0
         NMat0=    3 NMatS0=      3 NMatT0=    0 NMatD0=    3 NMtDS0=    0 NMtDT0=    0
 Petite list used in FoFCou.
      3 vectors produced by pass  1 Test12= 5.07D-13 3.33D-08 XBig12= 4.70D+00 1.86D-01.
      3 vectors produced by pass  2 Test12= 5.07D-13 3.33D-08 XBig12= 5.24D-01 4.69D-02.
      3 vectors produced by pass  3 Test12= 5.07D-13 3.33D-08 XBig12= 5.48D-02 1.59D-02.
      3 vectors produced by pass  4 Test12= 5.07D-13 3.33D-08 XBig12= 7.32D-03 5.86D-03.
      3 vectors produced by pass  5 Test12= 5.07D-13 3.33D-08 XBig12= 1.01D-03 3.29D-03.
      3 vectors produced by pass  6 Test12= 5.07D-13 3.33D-08 XBig12= 9.16D-05 5.66D-04.
      3 vectors produced by pass  7 Test12= 5.07D-13 3.33D-08 XBig12= 1.14D-05 2.39D-04.
      3 vectors produced by pass  8 Test12= 5.07D-13 3.33D-08 XBig12= 6.80D-07 8.04D-05.
      3 vectors produced by pass  9 Test12= 5.07D-13 3.33D-08 XBig12= 5.29D-08 2.01D-05.
      3 vectors produced by pass 10 Test12= 5.07D-13 3.33D-08 XBig12= 7.78D-09 8.13D-06.
      3 vectors produced by pass 11 Test12= 5.07D-13 3.33D-08 XBig12= 5.82D-10 1.54D-06.
      3 vectors produced by pass 12 Test12= 5.07D-13 3.33D-08 XBig12= 2.56D-11 4.92D-07.
      2 vectors produced by pass 13 Test12= 5.07D-13 3.33D-08 XBig12= 1.24D-12 7.52D-08.
 InvSVY:  IOpt=1 It=  1 EMax= 1.78D-15
 Solved reduced A of dimension    41 with     3 vectors.
 FullF1:  Do perturbations      1 to       3.
 SCF Polarizability for W=    0.000000:
                1             2             3 
      1  0.124563D+03
      2  0.804233D+00  0.100870D+03
      3 -0.148265D+01  0.685869D+00  0.947792D+02
 Isotropic polarizability for W=    0.000000      106.74 Bohr**3.
 SCF Static Hyperpolarizability:
 K=  1 block:
                1 
      1  0.496540D+02
 K=  2 block:
                1             2 
      1 -0.671030D+01
      2 -0.670123D+01 -0.935521D+01
 K=  3 block:
                1             2             3 
      1 -0.122523D+01
      2 -0.217222D+01 -0.337499D+01
      3  0.313086D+00 -0.516183D+01 -0.331825D+01
 End of Minotr F.D. properties file   721 does not exist.
 End of Minotr F.D. properties file   722 does not exist.
 End of Minotr F.D. properties file   788 does not exist.
 Leave Link 1002 at Mon Oct 31 15:29:49 2022, MaxMem=  8589934592 cpu:            5076.4 elap:             317.4
 (Enter /usr/local/gaussian/g16a03/g16/l601.exe)
 Copying SCF densities to generalized density rwf, IOpCl= 0 IROHF=0.

 **********************************************************************

            Population analysis using the SCF density.

 **********************************************************************

 Orbital symmetries:
       Occupied  (A) (A) (A) (A) (A) (A) (A) (A) (A) (A) (A) (A)
                 (A) (A) (A) (A) (A) (A) (A) (A) (A) (A) (A) (A)
                 (A) (A) (A) (A) (A) (A) (A) (A) (A) (A) (A) (A)
                 (A) (A) (A) (A)
       Virtual   (A) (A) (A) (A) (A) (A) (A) (A) (A) (A) (A) (A)
                 (A) (A) (A) (A) (A) (A) (A) (A) (A) (A) (A) (A)
                 (A) (A) (A) (A) (A) (A) (A) (A) (A) (A) (A) (A)
                 (A) (A) (A) (A) (A) (A) (A) (A) (A) (A) (A) (A)
                 (A) (A) (A) (A) (A) (A) (A) (A) (A) (A) (A) (A)
                 (A) (A) (A) (A) (A) (A) (A) (A) (A) (A) (A) (A)
                 (A) (A) (A) (A) (A) (A) (A) (A) (A) (A) (A) (A)
                 (A) (A) (A) (A) (A) (A) (A) (A) (A) (A) (A) (A)
                 (A) (A) (A) (A) (A) (A) (A) (A) (A) (A) (A) (A)
                 (A) (A) (A) (A) (A) (A) (A) (A) (A) (A) (A) (A)
                 (A) (A) (A) (A) (A) (A) (A) (A) (A) (A) (A) (A)
                 (A) (A) (A) (A) (A) (A) (A) (A) (A) (A) (A) (A)
                 (A) (A) (A) (A) (A) (A) (A) (A) (A) (A) (A) (A)
                 (A) (A) (A) (A) (A) (A) (A) (A) (A) (A) (A) (A)
                 (A) (A) (A) (A) (A) (A) (A) (A) (A) (A) (A) (A)
                 (A) (A) (A) (A) (A) (A) (A) (A) (A) (A) (A) (A)
                 (A) (A) (A) (A) (A) (A) (A) (A) (A) (A) (A) (A)
                 (A) (A) (A) (A) (A) (A) (A) (A) (A) (A) (A) (A)
                 (A) (A) (A) (A) (A) (A) (A) (A) (A) (A) (A) (A)
                 (A) (A) (A) (A) (A) (A) (A) (A) (A) (A) (A) (A)
                 (A) (A) (A) (A) (A) (A) (A) (A) (A) (A) (A) (A)
                 (A) (A) (A) (A) (A) (A) (A) (A) (A) (A) (A) (A)
                 (A) (A) (A) (A) (A) (A) (A) (A) (A) (A) (A) (A)
                 (A) (A) (A) (A) (A) (A) (A) (A) (A) (A) (A) (A)
                 (A) (A) (A) (A) (A) (A) (A) (A) (A) (A) (A) (A)
                 (A) (A) (A) (A) (A) (A) (A) (A) (A) (A) (A) (A)
                 (A) (A) (A) (A) (A) (A) (A) (A) (A) (A) (A) (A)
                 (A) (A) (A) (A) (A) (A) (A) (A) (A) (A) (A) (A)
                 (A) (A) (A) (A) (A) (A) (A) (A) (A) (A) (A) (A)
                 (A) (A) (A) (A) (A) (A) (A) (A) (A) (A) (A) (A)
                 (A) (A) (A) (A) (A) (A) (A) (A) (A) (A) (A) (A)
                 (A) (A) (A) (A) (A) (A) (A) (A)
 The electronic state is 1-A.
 Alpha  occ. eigenvalues --  -15.02677 -10.75632 -10.75479 -10.75354 -10.75326
 Alpha  occ. eigenvalues --  -10.70820 -10.70757 -10.69173 -10.67348 -10.64387
 Alpha  occ. eigenvalues --   -1.28452  -1.08423  -1.04208  -1.01444  -0.98768
 Alpha  occ. eigenvalues --   -0.95230  -0.88105  -0.85314  -0.83848  -0.80528
 Alpha  occ. eigenvalues --   -0.76530  -0.74996  -0.71898  -0.69360  -0.69031
 Alpha  occ. eigenvalues --   -0.66716  -0.65645  -0.63447  -0.62528  -0.61589
 Alpha  occ. eigenvalues --   -0.61520  -0.59279  -0.57956  -0.57715  -0.57361
 Alpha  occ. eigenvalues --   -0.56539  -0.55674  -0.52758  -0.51839  -0.51604
 Alpha virt. eigenvalues --   -0.12609  -0.11149  -0.10813  -0.10488  -0.08716
 Alpha virt. eigenvalues --   -0.08615  -0.08398  -0.08242  -0.07787  -0.06962
 Alpha virt. eigenvalues --   -0.05735  -0.05566  -0.05248  -0.05078  -0.04966
 Alpha virt. eigenvalues --   -0.04778  -0.03713  -0.03661  -0.02994  -0.02740
 Alpha virt. eigenvalues --   -0.02596  -0.02011  -0.01850  -0.01310  -0.00943
 Alpha virt. eigenvalues --   -0.00799  -0.00761  -0.00432   0.00135   0.00325
 Alpha virt. eigenvalues --    0.00597   0.00831   0.01022   0.01106   0.01493
 Alpha virt. eigenvalues --    0.01687   0.01878   0.02007   0.02252   0.02376
 Alpha virt. eigenvalues --    0.02513   0.03323   0.03418   0.03990   0.04359
 Alpha virt. eigenvalues --    0.04532   0.04749   0.04881   0.05293   0.05771
 Alpha virt. eigenvalues --    0.06045   0.06281   0.06486   0.06658   0.07145
 Alpha virt. eigenvalues --    0.07713   0.07765   0.08240   0.08742   0.08859
 Alpha virt. eigenvalues --    0.09230   0.09553   0.09827   0.10239   0.10574
 Alpha virt. eigenvalues --    0.10885   0.11061   0.11725   0.11973   0.12760
 Alpha virt. eigenvalues --    0.13113   0.13271   0.13890   0.14145   0.14610
 Alpha virt. eigenvalues --    0.14885   0.15128   0.15746   0.16091   0.16212
 Alpha virt. eigenvalues --    0.16910   0.17032   0.17728   0.18076   0.18353
 Alpha virt. eigenvalues --    0.18520   0.19092   0.19499   0.19911   0.19981
 Alpha virt. eigenvalues --    0.20428   0.20785   0.21235   0.21623   0.22067
 Alpha virt. eigenvalues --    0.22416   0.22798   0.23085   0.23462   0.23859
 Alpha virt. eigenvalues --    0.24356   0.24380   0.24690   0.25356   0.25541
 Alpha virt. eigenvalues --    0.26072   0.26316   0.26742   0.27129   0.27267
 Alpha virt. eigenvalues --    0.27791   0.28011   0.28333   0.28657   0.28943
 Alpha virt. eigenvalues --    0.29331   0.29564   0.29865   0.30187   0.30564
 Alpha virt. eigenvalues --    0.31047   0.31329   0.31615   0.31897   0.32811
 Alpha virt. eigenvalues --    0.33186   0.33769   0.33826   0.34621   0.34928
 Alpha virt. eigenvalues --    0.35032   0.35614   0.35812   0.36433   0.36574
 Alpha virt. eigenvalues --    0.36925   0.37087   0.37781   0.38011   0.38325
 Alpha virt. eigenvalues --    0.38614   0.39200   0.39467   0.40081   0.40558
 Alpha virt. eigenvalues --    0.40861   0.41035   0.41392   0.41589   0.42069
 Alpha virt. eigenvalues --    0.42305   0.42803   0.43327   0.43926   0.44034
 Alpha virt. eigenvalues --    0.44484   0.44621   0.44929   0.45405   0.45686
 Alpha virt. eigenvalues --    0.46106   0.47075   0.47174   0.47819   0.48336
 Alpha virt. eigenvalues --    0.48688   0.48917   0.49234   0.49732   0.49937
 Alpha virt. eigenvalues --    0.51468   0.51530   0.52247   0.52655   0.53072
 Alpha virt. eigenvalues --    0.53704   0.53852   0.54543   0.54659   0.55479
 Alpha virt. eigenvalues --    0.56126   0.57082   0.57936   0.58786   0.58886
 Alpha virt. eigenvalues --    0.59892   0.60043   0.60721   0.61070   0.61334
 Alpha virt. eigenvalues --    0.61678   0.62619   0.62924   0.63884   0.64202
 Alpha virt. eigenvalues --    0.65328   0.65716   0.66411   0.66858   0.67439
 Alpha virt. eigenvalues --    0.68560   0.68983   0.70515   0.71404   0.72547
 Alpha virt. eigenvalues --    0.72956   0.74638   0.75355   0.76926   0.77510
 Alpha virt. eigenvalues --    0.78186   0.79016   0.80006   0.81296   0.81996
 Alpha virt. eigenvalues --    0.82777   0.83636   0.84634   0.85066   0.86264
 Alpha virt. eigenvalues --    0.86517   0.88063   0.89587   0.90329   0.90424
 Alpha virt. eigenvalues --    0.91958   0.93162   0.93704   0.94354   0.95301
 Alpha virt. eigenvalues --    0.96051   0.97412   0.98330   0.99597   0.99745
 Alpha virt. eigenvalues --    1.00772   1.01297   1.02672   1.03702   1.05163
 Alpha virt. eigenvalues --    1.06189   1.06963   1.07315   1.08385   1.08667
 Alpha virt. eigenvalues --    1.09688   1.10846   1.11948   1.12981   1.15025
 Alpha virt. eigenvalues --    1.15411   1.16163   1.16707   1.18526   1.19378
 Alpha virt. eigenvalues --    1.20167   1.21740   1.24222   1.24814   1.26148
 Alpha virt. eigenvalues --    1.26236   1.28316   1.29006   1.30572   1.30887
 Alpha virt. eigenvalues --    1.32336   1.32905   1.33590   1.34443   1.36290
 Alpha virt. eigenvalues --    1.36552   1.37824   1.39362   1.39747   1.40495
 Alpha virt. eigenvalues --    1.41326   1.42423   1.42907   1.43729   1.45614
 Alpha virt. eigenvalues --    1.46090   1.46936   1.47720   1.48720   1.49773
 Alpha virt. eigenvalues --    1.50657   1.52327   1.52479   1.52904   1.53364
 Alpha virt. eigenvalues --    1.54364   1.55318   1.56571   1.58051   1.59514
 Alpha virt. eigenvalues --    1.60290   1.61434   1.62586   1.63592   1.65037
 Alpha virt. eigenvalues --    1.65834   1.66283   1.67986   1.70019   1.71206
 Alpha virt. eigenvalues --    1.71842   1.72894   1.74150   1.75873   1.76103
 Alpha virt. eigenvalues --    1.77295   1.78058   1.79961   1.81732   1.82210
 Alpha virt. eigenvalues --    1.83281   1.84221   1.85888   1.87442   1.88940
 Alpha virt. eigenvalues --    1.90520   1.91530   1.93047   1.96098   1.96761
 Alpha virt. eigenvalues --    1.97523   1.98763   1.99377   2.00971   2.02789
 Alpha virt. eigenvalues --    2.03237   2.05693   2.06040   2.07802   2.08662
 Alpha virt. eigenvalues --    2.12004   2.13641   2.14297   2.16079   2.16784
 Alpha virt. eigenvalues --    2.17536   2.18125   2.19279   2.20762   2.25652
 Alpha virt. eigenvalues --    2.27311   2.29335   2.31317   2.33004   2.36324
 Alpha virt. eigenvalues --    2.38165   2.39834   2.42758   2.45509   2.47352
 Alpha virt. eigenvalues --    2.49274   2.50346   2.53062   2.54141   2.55319
 Alpha virt. eigenvalues --    2.59897   2.62364   2.66150   2.66400   2.71872
 Alpha virt. eigenvalues --    2.73076   2.75911   2.78937   2.83274   2.89818
 Alpha virt. eigenvalues --   21.86957  21.91238  22.00154  22.04271  22.07614
 Alpha virt. eigenvalues --   22.11409  22.17073  22.20533  22.24121  33.14022
          Condensed to atoms (all electrons):
               1          2          3          4          5          6
     1  C   34.462806 -11.828969   7.837454   0.029525   1.360051 -16.783169
     2  C  -11.828969  30.113877  -5.222054   1.290018  -5.134199   1.920534
     3  C    7.837454  -5.222054  34.768665  -0.510798   0.625780 -17.150607
     4  H    0.029525   1.290018  -0.510798   9.393537  -5.186211   0.802933
     5  H    1.360051  -5.134199   0.625780  -5.186211   7.686884  -0.023903
     6  C  -16.783169   1.920534 -17.150607   0.802933  -0.023903  45.912686
     7  H    0.845866   0.166707  -4.036926  -1.064853   0.590665  -0.066869
     8  H   -0.971893  -0.146043   0.072017   1.287973  -1.151649   2.514028
     9  N   -5.618409   1.657178   0.264343  -0.815933   0.941996  -2.289100
    10  H   -0.949227  -3.546983  -1.844614  -0.454308   0.193292   0.574916
    11  H    1.261819   0.889755  -0.087746  -0.572287   0.297938  -4.449427
    12  H    1.416099   0.872855  -0.873695   1.473666  -1.497414  -2.130097
    13  H    0.651708  -3.335596   1.486639  -1.648527   1.021023  -0.369719
    14  C   -2.805774  -0.692447  -3.771966  -0.654873   0.593636  -1.496904
    15  H    2.446822  -0.500568   0.932268  -0.084559  -0.031697  -1.748657
    16  H   -2.505141   0.169583  -2.969412  -0.004560   0.220217   3.792790
    17  H   -0.263149   0.217072  -0.128781  -0.156247   0.120551   0.390233
    18  C   -0.043386  -3.890691  -3.541755  -0.474193   0.676580  -3.107168
    19  C   -0.387987  -0.653780   1.357999  -0.486662   0.279790  -4.334735
    20  H   -0.067843   0.775063  -0.685257   0.041935   0.001396   0.731399
    21  H    0.139931  -1.817634   0.831713  -1.087977   0.414146  -0.139701
    22  C   -2.215809   0.734951  -3.689048   0.451656  -0.157451   3.148191
    23  H   -0.216039   0.330571  -1.167726  -0.098081   0.040239  -0.845708
    24  H   -0.287240  -0.154070   0.394413   0.057931  -0.015982   1.319224
    25  C   -0.122050  -0.027269  -0.624659   0.023833  -0.007314  -1.747492
    26  H   -0.099648   0.634221  -0.630259   0.173851  -0.026378  -0.234236
    27  H   -0.072977  -0.064574   0.728609  -0.018807   0.009819   1.972249
    28  H   -0.044747  -0.033111  -0.015827  -0.010457   0.000837  -0.255710
    29  H    0.019672  -0.015017  -0.050868   0.000892  -0.000975  -0.249346
    30  H    0.019965   0.029342   0.037587   0.009815  -0.001250   0.468714
               7          8          9         10         11         12
     1  C    0.845866  -0.971893  -5.618409  -0.949227   1.261819   1.416099
     2  C    0.166707  -0.146043   1.657178  -3.546983   0.889755   0.872855
     3  C   -4.036926   0.072017   0.264343  -1.844614  -0.087746  -0.873695
     4  H   -1.064853   1.287973  -0.815933  -0.454308  -0.572287   1.473666
     5  H    0.590665  -1.151649   0.941996   0.193292   0.297938  -1.497414
     6  C   -0.066869   2.514028  -2.289100   0.574916  -4.449427  -2.130097
     7  H    7.982670  -5.283766   0.610073  -2.129268   0.897652   0.142660
     8  H   -5.283766   9.119907   0.207135   2.307018  -1.847683   0.099513
     9  N    0.610073   0.207135  51.273274   0.326894  -0.642581  -1.561010
    10  H   -2.129268   2.307018   0.326894  15.199834  -6.873099  -0.677279
    11  H    0.897652  -1.847683  -0.642581  -6.873099  12.711970  -0.118398
    12  H    0.142660   0.099513  -1.561010  -0.677279  -0.118398  10.979423
    13  H    0.202298  -0.213831  -2.697981   0.169841   0.121906  -5.075558
    14  C    0.913233  -0.958875  -6.961623  -0.888218   1.152210   1.857567
    15  H    0.171759   0.053616  -3.568004  -0.102409  -0.341558   1.148110
    16  H    0.344767  -1.495802  -2.636555  -0.551517   0.858060  -0.707566
    17  H   -0.003603  -0.042183  -4.206478   0.167263   0.221951  -1.101628
    18  C    0.636728  -0.899362  -7.043309   0.987875   0.619497  -1.254162
    19  C    0.114147  -0.119719   6.128456  -1.429589   0.251803  -0.361071
    20  H    0.010013  -0.120844  -3.986613  -0.128310   0.183517   0.307528
    21  H    0.328030  -0.282692  -1.918975   0.491183  -0.392154  -0.447701
    22  C    0.098343  -0.110780  -2.403980   2.410802  -1.489281  -0.258637
    23  H    0.035748  -0.175948  -4.830836   0.049845   0.264761  -0.301171
    24  H   -0.005448   0.026889  -0.184755  -0.018718   0.178585   0.015596
    25  C    0.025165  -0.040530  -2.089794   0.762105  -0.185687  -0.050314
    26  H    0.029231  -0.085621  -1.709350  -1.848251   0.633992   0.028714
    27  H    0.076711  -0.048371   2.089861   0.174643  -1.934072  -0.047868
    28  H   -0.002549   0.004085   0.201295   0.176417  -0.205453  -0.005930
    29  H    0.001245  -0.006658  -0.269731   0.109861   0.067903   0.002376
    30  H    0.003613   0.002730   0.054537  -0.176820   0.159316  -0.001977
              13         14         15         16         17         18
     1  C    0.651708  -2.805774   2.446822  -2.505141  -0.263149  -0.043386
     2  C   -3.335596  -0.692447  -0.500568   0.169583   0.217072  -3.890691
     3  C    1.486639  -3.771966   0.932268  -2.969412  -0.128781  -3.541755
     4  H   -1.648527  -0.654873  -0.084559  -0.004560  -0.156247  -0.474193
     5  H    1.021023   0.593636  -0.031697   0.220217   0.120551   0.676580
     6  C   -0.369719  -1.496904  -1.748657   3.792790   0.390233  -3.107168
     7  H    0.202298   0.913233   0.171759   0.344767  -0.003603   0.636728
     8  H   -0.213831  -0.958875   0.053616  -1.495802  -0.042183  -0.899362
     9  N   -2.697981  -6.961623  -3.568004  -2.636555  -4.206478  -7.043309
    10  H    0.169841  -0.888218  -0.102409  -0.551517   0.167263   0.987875
    11  H    0.121906   1.152210  -0.341558   0.858060   0.221951   0.619497
    12  H   -5.075558   1.857567   1.148110  -0.707566  -1.101628  -1.254162
    13  H    9.498064  -1.289923   0.108534  -0.543692   0.646195   2.599676
    14  C   -1.289923  17.760806  -0.233339  -0.553743   0.599608  -1.533675
    15  H    0.108534  -0.233339  14.351597  -4.966583  -2.669159  -1.864632
    16  H   -0.543692  -0.553743  -4.966583  11.464752  -1.917962   1.044086
    17  H    0.646195   0.599608  -2.669159  -1.917962   9.604147   1.395873
    18  C    2.599676  -1.533675  -1.864632   1.044086   1.395873  36.443902
    19  C    0.209377  -2.595590   0.744697   0.378829  -2.092606 -15.344892
    20  H   -0.860020   0.822243   0.538914   0.335789  -0.046610  -1.958894
    21  H    0.635465   0.302145  -0.226640   0.314236  -0.234341   0.075142
    22  C    0.180466  -0.209366  -0.466343   0.579634   0.981203  -1.891207
    23  H   -0.163408   1.654961  -1.004537   0.709426  -0.285338   2.707609
    24  H    0.155013   0.532653   0.249253   0.012164   0.382877   1.865425
    25  C   -0.062131   0.832215  -0.192467   0.171839   0.135310   0.874808
    26  H    0.010128   1.155458   0.541151   0.041736   0.119434   0.643034
    27  H    0.135472  -0.980923  -1.554919   0.313643  -0.196761  -2.321982
    28  H   -0.005975  -0.019532  -0.120820   0.015949  -0.016239  -0.199533
    29  H   -0.002225   0.029705   0.059278   0.001533   0.009830   0.592595
    30  H   -0.004841  -0.008527   0.159100  -0.041568   0.051710  -0.502740
              19         20         21         22         23         24
     1  C   -0.387987  -0.067843   0.139931  -2.215809  -0.216039  -0.287240
     2  C   -0.653780   0.775063  -1.817634   0.734951   0.330571  -0.154070
     3  C    1.357999  -0.685257   0.831713  -3.689048  -1.167726   0.394413
     4  H   -0.486662   0.041935  -1.087977   0.451656  -0.098081   0.057931
     5  H    0.279790   0.001396   0.414146  -0.157451   0.040239  -0.015982
     6  C   -4.334735   0.731399  -0.139701   3.148191  -0.845708   1.319224
     7  H    0.114147   0.010013   0.328030   0.098343   0.035748  -0.005448
     8  H   -0.119719  -0.120844  -0.282692  -0.110780  -0.175948   0.026889
     9  N    6.128456  -3.986613  -1.918975  -2.403980  -4.830836  -0.184755
    10  H   -1.429589  -0.128310   0.491183   2.410802   0.049845  -0.018718
    11  H    0.251803   0.183517  -0.392154  -1.489281   0.264761   0.178585
    12  H   -0.361071   0.307528  -0.447701  -0.258637  -0.301171   0.015596
    13  H    0.209377  -0.860020   0.635465   0.180466  -0.163408   0.155013
    14  C   -2.595590   0.822243   0.302145  -0.209366   1.654961   0.532653
    15  H    0.744697   0.538914  -0.226640  -0.466343  -1.004537   0.249253
    16  H    0.378829   0.335789   0.314236   0.579634   0.709426   0.012164
    17  H   -2.092606  -0.046610  -0.234341   0.981203  -0.285338   0.382877
    18  C  -15.344892  -1.958894   0.075142  -1.891207   2.707609   1.865425
    19  C   41.040444  -2.998904   1.681512 -13.132311  -1.939688  -5.395752
    20  H   -2.998904  12.401979  -7.030787   3.287831  -0.259614   0.861095
    21  H    1.681512  -7.030787  14.482991  -3.373558   1.368867  -1.449952
    22  C  -13.132311   3.287831  -3.373558  35.840162  -2.134809   0.088021
    23  H   -1.939688  -0.259614   1.368867  -2.134809  14.024177  -6.460414
    24  H   -5.395752   0.861095  -1.449952   0.088021  -6.460414  10.287932
    25  C    1.020642  -0.160391   0.412967 -11.538441   1.530070   0.164737
    26  H    1.765696  -0.095330  -1.297837  -2.851637  -0.294243   0.193859
    27  H   -0.042290   0.199042   0.306085   0.098239  -0.113214  -0.434183
    28  H   -1.514325   0.055805   0.285481   2.115729   0.734027  -1.479628
    29  H    2.086310   0.012928   0.065415  -1.701104   0.117752   0.339379
    30  H   -0.910423  -0.084395  -0.213723   3.571255  -1.176277   0.654533
              25         26         27         28         29         30
     1  C   -0.122050  -0.099648  -0.072977  -0.044747   0.019672   0.019965
     2  C   -0.027269   0.634221  -0.064574  -0.033111  -0.015017   0.029342
     3  C   -0.624659  -0.630259   0.728609  -0.015827  -0.050868   0.037587
     4  H    0.023833   0.173851  -0.018807  -0.010457   0.000892   0.009815
     5  H   -0.007314  -0.026378   0.009819   0.000837  -0.000975  -0.001250
     6  C   -1.747492  -0.234236   1.972249  -0.255710  -0.249346   0.468714
     7  H    0.025165   0.029231   0.076711  -0.002549   0.001245   0.003613
     8  H   -0.040530  -0.085621  -0.048371   0.004085  -0.006658   0.002730
     9  N   -2.089794  -1.709350   2.089861   0.201295  -0.269731   0.054537
    10  H    0.762105  -1.848251   0.174643   0.176417   0.109861  -0.176820
    11  H   -0.185687   0.633992  -1.934072  -0.205453   0.067903   0.159316
    12  H   -0.050314   0.028714  -0.047868  -0.005930   0.002376  -0.001977
    13  H   -0.062131   0.010128   0.135472  -0.005975  -0.002225  -0.004841
    14  C    0.832215   1.155458  -0.980923  -0.019532   0.029705  -0.008527
    15  H   -0.192467   0.541151  -1.554919  -0.120820   0.059278   0.159100
    16  H    0.171839   0.041736   0.313643   0.015949   0.001533  -0.041568
    17  H    0.135310   0.119434  -0.196761  -0.016239   0.009830   0.051710
    18  C    0.874808   0.643034  -2.321982  -0.199533   0.592595  -0.502740
    19  C    1.020642   1.765696  -0.042290  -1.514325   2.086310  -0.910423
    20  H   -0.160391  -0.095330   0.199042   0.055805   0.012928  -0.084395
    21  H    0.412967  -1.297837   0.306085   0.285481   0.065415  -0.213723
    22  C  -11.538441  -2.851637   0.098239   2.115729  -1.701104   3.571255
    23  H    1.530070  -0.294243  -0.113214   0.734027   0.117752  -1.176277
    24  H    0.164737   0.193859  -0.434183  -1.479628   0.339379   0.654533
    25  C   19.071005  -0.619080  -2.178854  -1.022492  -0.260457  -2.956893
    26  H   -0.619080  10.750906  -4.670556  -1.440086  -0.293138   1.411067
    27  H   -2.178854  -4.670556  11.325157   2.227343  -1.491067  -1.617611
    28  H   -1.022492  -1.440086   2.227343   7.049778  -2.782520  -1.979799
    29  H   -0.260457  -0.293138  -1.491067  -2.782520   6.956927  -1.759146
    30  H   -2.956893   1.411067  -1.617611  -1.979799  -1.759146   6.597153
 Mulliken charges:
               1
     1  C    0.791737
     2  C    3.261276
     3  C    3.664511
     4  H   -0.708231
     5  H   -0.840414
     6  C   -0.125347
     7  H   -0.634041
     8  H   -0.692658
     9  N   -1.320026
    10  H   -1.483179
    11  H   -0.633207
    12  H   -0.872631
    13  H   -0.558377
    14  C    3.448857
    15  H   -0.828209
    16  H   -0.874933
    17  H   -0.682173
    18  C    0.708753
    19  C    2.680621
    20  H   -1.082666
    21  H   -1.221638
    22  C    0.037279
    23  H   -1.101004
    24  H   -0.893438
    25  C    4.861617
    26  H   -0.936830
    27  H   -0.867842
    28  H   -0.712012
    29  H   -0.591350
    30  H   -0.794445
 Sum of Mulliken charges =   1.00000
 Mulliken charges with hydrogens summed into heavy atoms:
               1
     1  C   -0.639271
     2  C    1.712630
     3  C    2.337811
     6  C   -2.241733
     9  N   -1.320026
    14  C    1.063542
    18  C   -1.595551
    19  C    0.686179
    22  C   -1.767393
    25  C    2.763810
 Electronic spatial extent (au):  <R**2>=           1932.5170
 Charge=              1.0000 electrons
 Dipole moment (field-independent basis, Debye):
    X=              2.5314    Y=             -1.1628    Z=              0.3971  Tot=              2.8138
 Quadrupole moment (field-independent basis, Debye-Ang):
   XX=            -44.4013   YY=            -55.0553   ZZ=            -56.5874
   XY=              0.0132   XZ=              0.5929   YZ=             -0.4969
 Traceless Quadrupole moment (field-independent basis, Debye-Ang):
   XX=              7.6133   YY=             -3.0406   ZZ=             -4.5727
   XY=              0.0132   XZ=              0.5929   YZ=             -0.4969
 Octapole moment (field-independent basis, Debye-Ang**2):
  XXX=             11.8459  YYY=             -3.0655  ZZZ=              3.7055  XYY=              7.7303
  XXY=              4.1723  XXZ=             -3.3170  XZZ=              4.5200  YZZ=             -5.0950
  YYZ=              1.4609  XYZ=             -1.3060
 Hexadecapole moment (field-independent basis, Debye-Ang**3):
 XXXX=          -1666.6475 YYYY=           -413.4151 ZZZZ=           -284.3995 XXXY=            -10.2176
 XXXZ=             -2.4900 YYYX=              3.6924 YYYZ=             -2.2190 ZZZX=              4.9657
 ZZZY=             -4.1939 XXYY=           -358.7852 XXZZ=           -343.7702 YYZZ=           -114.7839
 XXYZ=              1.6418 YYXZ=              0.3088 ZZXY=              1.2230
 N-N= 6.048043466459D+02 E-N=-2.142995574032D+03  KE= 4.068483025990D+02
  Exact polarizability: 124.563   0.804 100.870  -1.483   0.686  94.779
 Approx polarizability: 128.422   0.636 124.991  -0.454   0.406 123.300
 No NMR shielding tensors so no spin-rotation constants.
 Leave Link  601 at Mon Oct 31 15:29:50 2022, MaxMem=  8589934592 cpu:               3.6 elap:               0.3
 (Enter /usr/local/gaussian/g16a03/g16/l9999.exe)

 ----------------------------------------------------------------------

 Electric dipole moment (input orientation):
 (Debye = 10**-18 statcoulomb cm , SI units = C m)
                  (au)            (Debye)         (10**-30 SI)
   Tot        0.110705D+01      0.281383D+01      0.938593D+01
   x         -0.555436D+00     -0.141178D+01     -0.470918D+01
   y          0.860638D+00      0.218752D+01      0.729679D+01
   z          0.419933D+00      0.106736D+01      0.356034D+01

 Dipole polarizability, Alpha (input orientation).
 (esu units = cm**3 , SI units = C**2 m**2 J**-1)
 Alpha(0;0):
               (au)            (10**-24 esu)      (10**-40 SI)
   iso        0.106737D+03      0.158169D+02      0.175986D+02
   aniso      0.274360D+02      0.406560D+01      0.452359D+01
   xx         0.101942D+03      0.151063D+02      0.168080D+02
   yx        -0.690023D+01     -0.102251D+01     -0.113769D+01
   yy         0.103662D+03      0.153611D+02      0.170915D+02
   zx        -0.522660D+01     -0.774502D+00     -0.861749D+00
   zy         0.113482D+02      0.168163D+01      0.187106D+01
   zz         0.114608D+03      0.169832D+02      0.188963D+02

 First dipole hyperpolarizability, Beta (input orientation).
 ||, _|_  parallel and perpendicular components, (z) with respect to z axis,
 vector components x,y,z.  Values do not include the 1/n! factor of 1/2.
 (esu units = statvolt**-1 cm**4 , SI units = C**3 m**3 J**-2)
 Beta(0;0,0):
               (au)            (10**-30 esu)      (10**-50 SI)
   || (z)     0.129641D+02      0.112000D+00      0.415677D-01
   _|_(z)     0.432138D+01      0.373333D-01      0.138559D-01
   x         -0.102918D+03     -0.889134D+00     -0.329993D+00
   y          0.816897D+02      0.705736D+00      0.261927D+00
   z          0.648207D+02      0.560000D+00      0.207839D+00
   ||         0.293033D+02      0.253158D+00      0.939570D-01
   xxx       -0.100687D+02     -0.869855D-01     -0.322838D-01
   xxy       -0.224992D+00     -0.194375D-02     -0.721404D-03
   yxy       -0.782590D+01     -0.676097D-01     -0.250927D-01
   yyy        0.132244D+02      0.114249D+00      0.424024D-01
   xxz        0.108847D+01      0.940350D-02      0.349002D-02
   yxz       -0.101246D+02     -0.874684D-01     -0.324630D-01
   yyz        0.116686D+02      0.100808D+00      0.374137D-01
   zxz       -0.164115D+02     -0.141783D+00     -0.526213D-01
   zyz        0.142305D+02      0.122940D+00      0.456280D-01
   zzz        0.884983D+01      0.764556D-01      0.283757D-01

 ----------------------------------------------------------------------

 Dipole orientation:
     6         -7.53606228         -2.14848146         -5.87004101
     6         -5.59016874         -4.25430711         -5.79247924
     6         -3.33518112         -3.07672981         -7.13865517
     1         -6.26038103         -5.91247455         -6.81505903
     1         -5.18855084         -4.82163690         -3.86047376
     6         -4.58109834         -1.76121337         -9.35590654
     1         -1.95055193         -4.45284023         -7.77549800
     1         -2.36821536         -1.72613834         -5.91826527
     7         -7.04784661         -0.69081296         -8.32695203
     1         -5.06465205         -3.10856782        -10.82710750
     1         -3.48796366         -0.23873702        -10.18505211
     1         -7.26874310         -0.82840888         -4.31984212
     1         -9.48340330         -2.78919006         -5.85802340
     6         -6.74141007          2.04780440         -7.75595939
     1         -6.33626742          3.06809559         -9.48756037
     1         -5.18150020          2.27628535         -6.44049726
     1         -8.47565148          2.75445394         -6.91076810
     6         -9.25822363         -1.10452123        -10.10188441
     6         -9.31820784          0.40272715        -12.54641329
     1        -10.93089882         -0.63701575         -8.99862703
     1         -9.28855895         -3.12940085        -10.47823646
     6         -7.24917369         -0.06705405        -14.50011411
     1         -9.46785664          2.41970225        -12.14039740
     1        -11.13375654         -0.10245893        -13.39215057
     6         -7.86646667          1.20252082        -17.00915653
     1         -7.01832119         -2.09919118        -14.79223335
     1         -5.43468590          0.64465043        -13.82399779
     1         -9.61928959          0.46315919        -17.79955563
     1         -6.36980657          0.88534454        -18.38313986
     1         -8.08777027          3.23814154        -16.77548425

 Electric dipole moment (dipole orientation):
 (Debye = 10**-18 statcoulomb cm , SI units = C m)
                  (au)            (Debye)         (10**-30 SI)
   Tot        0.110705D+01      0.281383D+01      0.938593D+01
   x          0.000000D+00      0.000000D+00      0.000000D+00
   y          0.000000D+00      0.000000D+00      0.000000D+00
   z          0.110705D+01      0.281383D+01      0.938593D+01

 Dipole polarizability, Alpha (dipole orientation).
 (esu units = cm**3 , SI units = C**2 m**2 J**-1)
 Alpha(0;0):
               (au)            (10**-24 esu)      (10**-40 SI)
   iso        0.106737D+03      0.158169D+02      0.175986D+02
   aniso      0.274360D+02      0.406560D+01      0.452359D+01
   xx         0.101011D+03      0.149682D+02      0.166544D+02
   yx        -0.510391D+01     -0.756322D+00     -0.841522D+00
   yy         0.100332D+03      0.148677D+02      0.165426D+02
   zx         0.472077D+01      0.699547D+00      0.778351D+00
   zy        -0.959539D+01     -0.142189D+01     -0.158207D+01
   zz         0.118869D+03      0.176146D+02      0.195989D+02

 First dipole hyperpolarizability, Beta (dipole orientation).
 ||, _|_  parallel and perpendicular components, (z) with respect to z axis,
 vector components x,y,z.  Values do not include the 1/n! factor of 1/2.
 (esu units = statvolt**-1 cm**4 , SI units = C**3 m**3 J**-2)
 Beta(0;0,0):
               (au)            (10**-30 esu)      (10**-50 SI)
   || (z)     0.279465D+02      0.241436D+00      0.896065D-01
   _|_(z)     0.931549D+01      0.804786D-01      0.298688D-01
   x         -0.285125D+02     -0.246326D+00     -0.914213D-01
   y         -0.336008D+02     -0.290285D+00     -0.107736D+00
   z          0.139732D+03      0.120718D+01      0.448032D+00
   ||         0.293033D+02      0.253158D+00      0.939570D-01
   xxx       -0.173859D+02     -0.150201D+00     -0.557455D-01
   xxy        0.178930D+01      0.154581D-01      0.573713D-02
   yxy       -0.238055D+01     -0.205661D-01     -0.763289D-02
   yyy        0.624936D+00      0.539896D-02      0.200377D-02
   xxz       -0.272736D+00     -0.235622D-02     -0.874489D-03
   yxz       -0.150278D+01     -0.129828D-01     -0.481844D-02
   yyz        0.623958D+01      0.539051D-01      0.200063D-01
   zxz        0.102623D+02      0.886583D-01      0.329046D-01
   zyz       -0.136145D+02     -0.117619D+00     -0.436530D-01
   zzz        0.406106D+02      0.350844D+00      0.130212D+00

 ----------------------------------------------------------------------
 1\1\GINC-MI05\SP\RM062X\Gen\C9H20N1(1+)\SOPHIEC\31-Oct-2022\0\\#P M062
 X/Gen field=X+8 int=(grid=ultrafine) polar=Dipole\\c4mpyr_eGeom\\1,1\C
 ,0,-2.0231,-4.18137,-2.29528\C,0,-1.51702,-4.48435,-0.89675\C,0,-0.007
 88,-4.35061,-1.05271\H,0,-1.78359,-5.49831,-0.5978\H,0,-1.94113,-3.798
 11,-0.16891\C,0,0.23868,-5.0581,-2.36977\H,0,0.55427,-4.81453,-0.2468\
 H,0,0.28852,-3.30231,-1.10663\N,0,-0.94145,-4.68569,-3.25851\H,0,0.218
 48,-6.13628,-2.23918\H,0,1.15954,-4.78298,-2.87231\H,0,-2.1215,-3.1111
 6,-2.4562\H,0,-2.96459,-4.65832,-2.54631\C,0,-0.55067,-3.59072,-4.1891
 8\H,0,0.23702,-3.93912,-4.84894\H,0,-0.19092,-2.74819,-3.60496\H,0,-1.
 41956,-3.29244,-4.77068\C,0,-1.48832,-5.86965,-4.03146\C,0,-0.63969,-6
 .43617,-5.15815\H,0,-2.43488,-5.52709,-4.44643\H,0,-1.70453,-6.63103,-
 3.28204\C,0,0.70379,-7.06996,-4.80772\H,0,-0.5104,-5.69187,-5.94615\H,
 0,-1.27615,-7.20598,-5.60212\C,0,1.29289,-7.81708,-5.99755\H,0,0.57712
 ,-7.75976,-3.96906\H,0,1.41573,-6.30869,-4.48304\H,0,0.63383,-8.62436,
 -6.31742\H,0,2.25768,-8.25266,-5.7455\H,0,1.43973,-7.14886,-6.84684\\V
 ersion=ES64L-G16RevA.03\State=1-A\HF=-409.4024852\RMSD=4.599e-09\Dipol
 e=-0.5554358,0.8606381,0.4199328\Polar=101.942488,-6.9002331,103.66181
 18,-5.2265965,11.3481965,114.6081384\HyperPolar=-10.0686701,-0.2249916
 ,-7.8258999,13.2244465,1.0884666,-10.1245701,11.6685992,-16.4115268,14
 .2304535,8.8498269\Quadrupole=-2.3474377,0.366109,1.9813287,-2.0880241
 ,-1.5725363,3.6148095\PG=C01 [X(C9H20N1)]\\@


 You don't have to suffer to be a poet.
 Adolescence is enough suffering for anyone.
                             -- John Ciardi
 Job cpu time:       0 days  2 hours  7 minutes 12.0 seconds.
 Elapsed time:       0 days  0 hours  7 minutes 57.4 seconds.
 File lengths (MBytes):  RWF=     94 Int=      0 D2E=      0 Chk=     13 Scr=      1
 Normal termination of Gaussian 16 at Mon Oct 31 15:29:50 2022.
Done.
Output directory in: /monfs01/projects/sn29/sophiec/md/polarisabilities/c4mpyr/plusX/g16.10108897
