No checkpoint file specified...
total 0
 Entering Gaussian System, Link 0=g16
 Initial command:
 /usr/local/gaussian/g16a03/g16/l1.exe "/tmp/p2015120004.sophiec/g16.10108895/scratch/Gau-156880.inp" -scrdir="/tmp/p2015120004.sophiec/g16.10108895/scratch/"
 Entering Link 1 = /usr/local/gaussian/g16a03/g16/l1.exe PID=    156884.
  
 Copyright (c) 1988,1990,1992,1993,1995,1998,2003,2009,2016,
            Gaussian, Inc.  All Rights Reserved.
  
 This is part of the Gaussian(R) 16 program.  It is based on
 the Gaussian(R) 09 system (copyright 2009, Gaussian, Inc.),
 the Gaussian(R) 03 system (copyright 2003, Gaussian, Inc.),
 the Gaussian(R) 98 system (copyright 1998, Gaussian, Inc.),
 the Gaussian(R) 94 system (copyright 1995, Gaussian, Inc.),
 the Gaussian 92(TM) system (copyright 1992, Gaussian, Inc.),
 the Gaussian 90(TM) system (copyright 1990, Gaussian, Inc.),
 the Gaussian 88(TM) system (copyright 1988, Gaussian, Inc.),
 the Gaussian 86(TM) system (copyright 1986, Carnegie Mellon
 University), and the Gaussian 82(TM) system (copyright 1983,
 Carnegie Mellon University). Gaussian is a federally registered
 trademark of Gaussian, Inc.
  
 This software contains proprietary and confidential information,
 including trade secrets, belonging to Gaussian, Inc.
  
 This software is provided under written license and may be
 used, copied, transmitted, or stored only in accord with that
 written license.
  
 The following legend is applicable only to US Government
 contracts under FAR:
  
                    RESTRICTED RIGHTS LEGEND
  
 Use, reproduction and disclosure by the US Government is
 subject to restrictions as set forth in subparagraphs (a)
 and (c) of the Commercial Computer Software - Restricted
 Rights clause in FAR 52.227-19.
  
 Gaussian, Inc.
 340 Quinnipiac St., Bldg. 40, Wallingford CT 06492
  
  
 ---------------------------------------------------------------
 Warning -- This program may not be used in any manner that
 competes with the business of Gaussian, Inc. or will provide
 assistance to any competitor of Gaussian, Inc.  The licensee
 of this program is prohibited from giving any competitor of
 Gaussian, Inc. access to this program.  By using this program,
 the user acknowledges that Gaussian, Inc. is engaged in the
 business of creating and licensing software in the field of
 computational chemistry and represents and warrants to the
 licensee that it is not a competitor of Gaussian, Inc. and that
 it will not use this program in any manner prohibited above.
 ---------------------------------------------------------------
  

 Cite this work as:
 Gaussian 16, Revision A.03,
 M. J. Frisch, G. W. Trucks, H. B. Schlegel, G. E. Scuseria, 
 M. A. Robb, J. R. Cheeseman, G. Scalmani, V. Barone, 
 G. A. Petersson, H. Nakatsuji, X. Li, M. Caricato, A. V. Marenich, 
 J. Bloino, B. G. Janesko, R. Gomperts, B. Mennucci, H. P. Hratchian, 
 J. V. Ortiz, A. F. Izmaylov, J. L. Sonnenberg, D. Williams-Young, 
 F. Ding, F. Lipparini, F. Egidi, J. Goings, B. Peng, A. Petrone, 
 T. Henderson, D. Ranasinghe, V. G. Zakrzewski, J. Gao, N. Rega, 
 G. Zheng, W. Liang, M. Hada, M. Ehara, K. Toyota, R. Fukuda, 
 J. Hasegawa, M. Ishida, T. Nakajima, Y. Honda, O. Kitao, H. Nakai, 
 T. Vreven, K. Throssell, J. A. Montgomery, Jr., J. E. Peralta, 
 F. Ogliaro, M. J. Bearpark, J. J. Heyd, E. N. Brothers, K. N. Kudin, 
 V. N. Staroverov, T. A. Keith, R. Kobayashi, J. Normand, 
 K. Raghavachari, A. P. Rendell, J. C. Burant, S. S. Iyengar, 
 J. Tomasi, M. Cossi, J. M. Millam, M. Klene, C. Adamo, R. Cammi, 
 J. W. Ochterski, R. L. Martin, K. Morokuma, O. Farkas, 
 J. B. Foresman, and D. J. Fox, Gaussian, Inc., Wallingford CT, 2016.
 
 ******************************************
 Gaussian 16:  ES64L-G16RevA.03 25-Dec-2016
                31-Oct-2022 
 ******************************************
 %chk=spec.chk
 %mem=64gb
 %nproc=16
 Will use up to   16 processors via shared memory.
 --------------------------------------------------------
 #P M062X/Gen field=Y-8 int=(grid=ultrafine) polar=Dipole
 --------------------------------------------------------
 1/38=1,172=1/1;
 2/12=2,17=6,18=5,40=1/2;
 3/5=7,11=2,14=2,15=-8,25=1,30=1,74=-55,75=-5/1,2,3;
 4//1;
 5/5=2,38=5,98=1/2;
 8/6=4,10=90,11=11/1;
 10/6=1,13=10,17=1/2;
 6/7=2,8=2,9=2,10=2,28=1/1;
 99/5=1,9=1/99;
 Leave Link    1 at Mon Oct 31 15:21:52 2022, MaxMem=  8589934592 cpu:               1.3 elap:               0.1
 (Enter /usr/local/gaussian/g16a03/g16/l101.exe)
 ------------
 c4mpyr_eGeom
 ------------
 Symbolic Z-matrix:
 Charge =  1 Multiplicity = 1
 C                    -2.0231   -4.18137  -2.29528 
 C                    -1.51702  -4.48435  -0.89675 
 C                    -0.00788  -4.35061  -1.05271 
 H                    -1.78359  -5.49831  -0.5978 
 H                    -1.94113  -3.79811  -0.16891 
 C                     0.23868  -5.0581   -2.36977 
 H                     0.55427  -4.81453  -0.2468 
 H                     0.28852  -3.30231  -1.10663 
 N                    -0.94145  -4.68569  -3.25851 
 H                     0.21848  -6.13628  -2.23918 
 H                     1.15954  -4.78298  -2.87231 
 H                    -2.1215   -3.11116  -2.4562 
 H                    -2.96459  -4.65832  -2.54631 
 C                    -0.55067  -3.59072  -4.18918 
 H                     0.23702  -3.93912  -4.84894 
 H                    -0.19092  -2.74819  -3.60496 
 H                    -1.41956  -3.29244  -4.77068 
 C                    -1.48832  -5.86965  -4.03146 
 C                    -0.63969  -6.43617  -5.15815 
 H                    -2.43488  -5.52709  -4.44643 
 H                    -1.70453  -6.63103  -3.28204 
 C                     0.70379  -7.06996  -4.80772 
 H                    -0.5104   -5.69187  -5.94615 
 H                    -1.27615  -7.20598  -5.60212 
 C                     1.29289  -7.81708  -5.99755 
 H                     0.57712  -7.75976  -3.96906 
 H                     1.41573  -6.30869  -4.48304 
 H                     0.63383  -8.62436  -6.31742 
 H                     2.25768  -8.25266  -5.7455 
 H                     1.43973  -7.14886  -6.84684 
 
 ITRead=  0  0  0  0  0  0  0  0  0  0  0  0  0  0  0  0  0  0  0  0
 ITRead=  0  0  0  0  0  0  0  0  0  0
 MicOpt= -1 -1 -1 -1 -1 -1 -1 -1 -1 -1 -1 -1 -1 -1 -1 -1 -1 -1 -1 -1
 MicOpt= -1 -1 -1 -1 -1 -1 -1 -1 -1 -1
 NAtoms=     30 NQM=       30 NQMF=       0 NMMI=      0 NMMIF=      0
                NMic=       0 NMicF=      0.
                    Isotopes and Nuclear Properties:
 (Nuclear quadrupole moments (NQMom) in fm**2, nuclear magnetic moments (NMagM)
  in nuclear magnetons)

  Atom         1           2           3           4           5           6           7           8           9          10
 IAtWgt=          12          12          12           1           1          12           1           1          14           1
 AtmWgt=  12.0000000  12.0000000  12.0000000   1.0078250   1.0078250  12.0000000   1.0078250   1.0078250  14.0030740   1.0078250
 NucSpn=           0           0           0           1           1           0           1           1           2           1
 AtZEff=  -0.0000000  -0.0000000  -0.0000000  -0.0000000  -0.0000000  -0.0000000  -0.0000000  -0.0000000  -0.0000000  -0.0000000
 NQMom=    0.0000000   0.0000000   0.0000000   0.0000000   0.0000000   0.0000000   0.0000000   0.0000000   2.0440000   0.0000000
 NMagM=    0.0000000   0.0000000   0.0000000   2.7928460   2.7928460   0.0000000   2.7928460   2.7928460   0.4037610   2.7928460
 AtZNuc=   6.0000000   6.0000000   6.0000000   1.0000000   1.0000000   6.0000000   1.0000000   1.0000000   7.0000000   1.0000000

  Atom        11          12          13          14          15          16          17          18          19          20
 IAtWgt=           1           1           1          12           1           1           1          12          12           1
 AtmWgt=   1.0078250   1.0078250   1.0078250  12.0000000   1.0078250   1.0078250   1.0078250  12.0000000  12.0000000   1.0078250
 NucSpn=           1           1           1           0           1           1           1           0           0           1
 AtZEff=  -0.0000000  -0.0000000  -0.0000000  -0.0000000  -0.0000000  -0.0000000  -0.0000000  -0.0000000  -0.0000000  -0.0000000
 NQMom=    0.0000000   0.0000000   0.0000000   0.0000000   0.0000000   0.0000000   0.0000000   0.0000000   0.0000000   0.0000000
 NMagM=    2.7928460   2.7928460   2.7928460   0.0000000   2.7928460   2.7928460   2.7928460   0.0000000   0.0000000   2.7928460
 AtZNuc=   1.0000000   1.0000000   1.0000000   6.0000000   1.0000000   1.0000000   1.0000000   6.0000000   6.0000000   1.0000000

  Atom        21          22          23          24          25          26          27          28          29          30
 IAtWgt=           1          12           1           1          12           1           1           1           1           1
 AtmWgt=   1.0078250  12.0000000   1.0078250   1.0078250  12.0000000   1.0078250   1.0078250   1.0078250   1.0078250   1.0078250
 NucSpn=           1           0           1           1           0           1           1           1           1           1
 AtZEff=  -0.0000000  -0.0000000  -0.0000000  -0.0000000  -0.0000000  -0.0000000  -0.0000000  -0.0000000  -0.0000000  -0.0000000
 NQMom=    0.0000000   0.0000000   0.0000000   0.0000000   0.0000000   0.0000000   0.0000000   0.0000000   0.0000000   0.0000000
 NMagM=    2.7928460   0.0000000   2.7928460   2.7928460   0.0000000   2.7928460   2.7928460   2.7928460   2.7928460   2.7928460
 AtZNuc=   1.0000000   6.0000000   1.0000000   1.0000000   6.0000000   1.0000000   1.0000000   1.0000000   1.0000000   1.0000000
 Leave Link  101 at Mon Oct 31 15:21:52 2022, MaxMem=  8589934592 cpu:               2.1 elap:               0.2
 (Enter /usr/local/gaussian/g16a03/g16/l202.exe)
                          Input orientation:                          
 ---------------------------------------------------------------------
 Center     Atomic      Atomic             Coordinates (Angstroms)
 Number     Number       Type             X           Y           Z
 ---------------------------------------------------------------------
      1          6           0       -2.023100   -4.181370   -2.295280
      2          6           0       -1.517020   -4.484350   -0.896750
      3          6           0       -0.007880   -4.350610   -1.052710
      4          1           0       -1.783590   -5.498310   -0.597800
      5          1           0       -1.941130   -3.798110   -0.168910
      6          6           0        0.238680   -5.058100   -2.369770
      7          1           0        0.554270   -4.814530   -0.246800
      8          1           0        0.288520   -3.302310   -1.106630
      9          7           0       -0.941450   -4.685690   -3.258510
     10          1           0        0.218480   -6.136280   -2.239180
     11          1           0        1.159540   -4.782980   -2.872310
     12          1           0       -2.121500   -3.111160   -2.456200
     13          1           0       -2.964590   -4.658320   -2.546310
     14          6           0       -0.550670   -3.590720   -4.189180
     15          1           0        0.237020   -3.939120   -4.848940
     16          1           0       -0.190920   -2.748190   -3.604960
     17          1           0       -1.419560   -3.292440   -4.770680
     18          6           0       -1.488320   -5.869650   -4.031460
     19          6           0       -0.639690   -6.436170   -5.158150
     20          1           0       -2.434880   -5.527090   -4.446430
     21          1           0       -1.704530   -6.631030   -3.282040
     22          6           0        0.703790   -7.069960   -4.807720
     23          1           0       -0.510400   -5.691870   -5.946150
     24          1           0       -1.276150   -7.205980   -5.602120
     25          6           0        1.292890   -7.817080   -5.997550
     26          1           0        0.577120   -7.759760   -3.969060
     27          1           0        1.415730   -6.308690   -4.483040
     28          1           0        0.633830   -8.624360   -6.317420
     29          1           0        2.257680   -8.252660   -5.745500
     30          1           0        1.439730   -7.148860   -6.846840
 ---------------------------------------------------------------------
                    Distance matrix (angstroms):
                    1          2          3          4          5
     1  C    0.000000
     2  C    1.517827   0.000000
     3  C    2.373549   1.523061   0.000000
     4  H    2.161743   1.090204   2.162708   0.000000
     5  H    2.162188   1.086529   2.196318   1.760524   0.000000
     6  C    2.426902   2.362511   1.515249   2.724562   3.344089
     7  H    3.352611   2.195836   1.086612   2.460964   2.695589
     8  H    2.743943   2.168235   1.090731   3.061856   2.469104
     9  N    1.533661   2.439207   2.418550   2.906704   3.366420
    10  H    2.974811   2.746443   2.155822   2.666349   3.796969
    11  H    3.289999   3.340058   2.204713   3.787758   4.229952
    12  H    1.086705   2.164008   2.823723   3.044063   2.395022
    13  H    1.084851   2.201539   3.326809   2.428381   2.727538
    14  C    2.470582   3.545772   3.272537   4.249353   4.258986
    15  H    3.418773   4.358181   3.826312   4.958440   5.164001
    16  H    2.669485   3.479539   3.019145   4.375245   3.996499
    17  H    2.698530   4.054316   4.115321   4.734058   4.658758
    18  C    2.480040   3.427286   3.656793   3.466280   4.406314
    19  C    3.897944   4.768526   4.647944   4.794255   5.791858
    20  H    2.570597   3.811824   4.334947   3.903455   4.640080
    21  H    2.660078   3.214499   3.612319   2.914524   4.215803
    22  C    4.700238   5.187780   4.690569   5.136202   6.262520
    23  H    4.230688   5.288462   5.098751   5.501211   6.245784
    24  H    4.543280   5.441121   5.518947   5.311954   6.447910
    25  C    6.158001   6.709757   6.177367   6.633153   7.783576
    26  H    4.729435   4.955080   4.524337   4.696009   6.039652
    27  H    4.597536   4.979028   4.198560   5.097789   6.015251
    28  H    6.555688   7.151888   6.811307   6.951990   8.229659
    29  H    6.841381   7.208252   6.510072   7.100502   8.280784
    30  H    6.443127   7.158600   6.595280   7.222507   8.200761
                    6          7          8          9         10
     6  C    0.000000
     7  H    2.160075   0.000000
     8  H    2.163517   1.759756   0.000000
     9  N    1.523566   3.365141   2.838513   0.000000
    10  H    1.086248   2.414406   3.052697   2.118651   0.000000
    11  H    1.084537   2.694559   2.463470   2.138405   1.765749
    12  H    3.060800   3.865574   2.768768   2.124939   3.830660
    13  H    3.232944   4.206486   3.807120   2.145011   3.522872
    14  C    2.467089   4.273285   3.207730   1.489233   3.297570
    15  H    2.720001   4.695390   3.796454   2.115568   3.411554
    16  H    2.654418   4.012768   2.603568   2.106473   3.675883
    17  H    3.410525   5.165100   4.042635   2.111017   4.144767
    18  C    2.530288   4.428217   4.278204   1.516008   2.489282
    19  C    3.231977   5.308165   5.205523   2.600744   3.057250
    20  H    3.417659   5.203811   4.849827   2.085531   3.504766
    21  H    2.661280   4.196967   4.448037   2.089783   2.242833
    22  C    3.194919   5.090316   5.297707   3.285059   2.775731
    23  H    3.708541   5.863944   5.456118   2.902001   3.803997
    24  H    4.166075   6.144015   6.155994   3.457802   3.832433
    25  C    4.678046   6.529318   6.731494   4.722311   4.254972
    26  H    3.157727   4.746591   5.305248   3.501549   2.399332
    27  H    2.723111   4.573878   4.659299   3.112860   2.549125
    28  H    5.334632   7.167535   7.456258   5.229872   4.795321
    29  H    5.067260   6.705076   7.064182   5.398410   4.575115
    30  H    5.085072   7.056463   7.005087   4.961183   4.873120
                   11         12         13         14         15
    11  H    0.000000
    12  H    3.705854   0.000000
    13  H    4.138872   1.764263   0.000000
    14  C    2.465857   2.387615   3.108987   0.000000
    15  H    2.338848   3.460251   4.008698   1.084952   0.000000
    16  H    2.549684   2.275640   3.530238   1.086550   1.774523
    17  H    3.532319   2.425366   3.033244   1.087236   1.780050
    18  C    3.087984   3.239078   2.419166   2.469329   2.715146
    19  C    3.345942   4.533430   3.922706   3.007227   2.664487
    20  H    3.993921   3.145781   2.155414   2.714029   3.134121
    21  H    3.433084   3.639418   2.453698   3.376060   3.670309
    22  C    3.030478   5.402222   4.938319   3.749850   3.165712
    23  H    3.614315   4.629844   4.318586   2.739233   2.198781
    24  H    4.388095   5.232493   4.321964   3.948775   3.678225
    25  C    4.357829   6.807709   6.325738   4.952881   4.180041
    26  H    3.225414   5.583975   4.918014   4.324495   3.935371
    27  H    2.233355   5.181146   5.065752   3.367558   2.671723
    28  H    5.186652   7.272980   6.549761   5.591956   4.925989
    29  H    4.636789   7.512106   7.101141   5.660622   4.847011
    30  H    4.633873   6.947165   6.640435   4.866745   3.967436
                   16         17         18         19         20
    16  H    0.000000
    17  H    1.778951   0.000000
    18  C    3.407149   2.682011   0.000000
    19  C    4.026784   3.262111   1.520049   0.000000
    20  H    3.669566   2.475818   1.088817   2.134404   0.000000
    21  H    4.179921   3.666530   1.089989   2.166020   1.762923
    22  C    4.574367   4.333549   2.616996   1.526247   3.515996
    23  H    3.774717   2.822333   2.157306   1.091624   2.445391
    24  H    5.003825   4.003455   2.073106   1.093068   2.344557
    25  C    5.798261   5.416176   3.923407   2.519200   4.641799
    26  H    5.083138   4.958455   2.800438   2.155563   3.779529
    27  H    4.003687   4.149623   2.971563   2.167205   3.929305
    28  H    6.524341   5.919306   4.161437   2.784589   4.744541
    29  H    6.393492   6.251092   4.759116   3.469779   5.580003
    30  H    5.703920   5.230483   4.258664   2.771929   4.837841
                   21         22         23         24         25
    21  H    0.000000
    22  C    2.884504   0.000000
    23  H    3.066831   2.160882   0.000000
    24  H    2.428343   2.137694   1.731259   0.000000
    25  C    4.214883   1.523457   2.787654   2.670164   0.000000
    26  H    2.636656   1.093261   3.060679   2.531436   2.151833
    27  H    3.358917   1.091699   2.496224   3.050195   2.141044
    28  H    4.319123   2.168006   3.169637   2.484246   1.090127
    29  H    4.939375   2.166284   3.776264   3.688367   1.088154
    30  H    4.781456   2.169296   2.595587   2.988075   1.090584
                   26         27         28         29         30
    26  H    0.000000
    27  H    1.753011   0.000000
    28  H    2.503107   3.055920   0.000000
    29  H    2.494588   2.466111   1.761290   0.000000
    30  H    3.065765   2.508787   1.762629   1.760786   0.000000
 Stoichiometry    C9H20N(1+)
 Framework group  C1[X(C9H20N)]
 Deg. of freedom    84
 Full point group                 C1      NOp   1
 Largest Abelian subgroup         C1      NOp   1
 Largest concise Abelian subgroup C1      NOp   1
                         Standard orientation:                         
 ---------------------------------------------------------------------
 Center     Atomic      Atomic             Coordinates (Angstroms)
 Number     Number       Type             X           Y           Z
 ---------------------------------------------------------------------
      1          6           0        2.068148   -0.836663   -0.439403
      2          6           0        2.764771    0.478088   -0.739315
      3          6           0        2.224295    1.396812    0.348594
      4          1           0        2.488263    0.848413   -1.726709
      5          1           0        3.845029    0.364149   -0.714722
      6          6           0        0.752388    1.037353    0.364768
      7          1           0        2.368087    2.452612    0.135668
      8          1           0        2.693086    1.182873    1.309925
      9          7           0        0.699480   -0.469681    0.147274
     10          1           0        0.231460    1.503279   -0.466785
     11          1           0        0.231646    1.279626    1.284742
     12          1           0        2.601338   -1.401484    0.320605
     13          1           0        1.918126   -1.474004   -1.304384
     14          6           0        0.511614   -1.164642    1.450942
     15          1           0       -0.443141   -0.879203    1.879999
     16          1           0        1.314875   -0.871554    2.121361
     17          1           0        0.540819   -2.239135    1.287559
     18          6           0       -0.379821   -0.881614   -0.834408
     19          6           0       -1.828647   -0.754423   -0.392509
     20          1           0       -0.175222   -1.926590   -1.061755
     21          1           0       -0.191553   -0.297435   -1.735167
     22          6           0       -2.382049    0.639422   -0.109008
     23          1           0       -2.026607   -1.416786    0.452316
     24          1           0       -2.393385   -1.184638   -1.223644
     25          6           0       -3.896189    0.612867    0.057110
     26          1           0       -2.115685    1.313982   -0.927078
     27          1           0       -1.936118    1.053842    0.797198
     28          1           0       -4.382792    0.255715   -0.850656
     29          1           0       -4.281971    1.606786    0.274771
     30          1           0       -4.189676   -0.045886    0.875208
 ---------------------------------------------------------------------
 Rotational constants (GHZ):           2.4796908           0.7142451           0.6647787
 Leave Link  202 at Mon Oct 31 15:21:52 2022, MaxMem=  8589934592 cpu:               0.6 elap:               0.1
 (Enter /usr/local/gaussian/g16a03/g16/l301.exe)
 General basis read from cards:  (5D, 7F)
 Centers:       4      5      7      8     10     11     12     13     15     16
 Centers:      17     20     21     23     24     26     27     28     29     30
 S 4 1.00
     Exponent=  3.3685014000D+01 Coefficients=  6.0680000000D-03
     Exponent=  5.0947880000D+00 Coefficients=  4.5316000000D-02
     Exponent=  1.1587860000D+00 Coefficients=  2.0284600000D-01
     Exponent=  3.2584000000D-01 Coefficients=  5.0370900000D-01
 S 1 1.00
     Exponent=  1.0274100000D-01 Coefficients=  1.0000000000D+00
 S 1 1.00
     Exponent=  3.2400000000D-02 Coefficients=  1.0000000000D+00
 P 2 1.00
     Exponent=  1.1588000000D+00 Coefficients=  1.8844000000D-01
     Exponent=  3.2580000000D-01 Coefficients=  8.8242000000D-01
 P 2 1.00
     Exponent=  1.0270000000D-01 Coefficients=  1.1780000000D-01
     Exponent=  3.2400000000D-02 Coefficients=  4.2000000000D-03
 ****
 Centers:       1      2      3      6     14     18     19     22     25
 S 5 1.00
     Exponent=  5.2406353000D+03 Coefficients=  9.3700000000D-04
     Exponent=  7.8220480000D+02 Coefficients=  7.2280000000D-03
     Exponent=  1.7835083000D+02 Coefficients=  3.6344000000D-02
     Exponent=  5.0815942000D+01 Coefficients=  1.3060000000D-01
     Exponent=  1.6823562000D+01 Coefficients=  3.1893100000D-01
 S 2 1.00
     Exponent=  6.1757760000D+00 Coefficients=  4.3874200000D-01
     Exponent=  2.4180490000D+00 Coefficients=  2.1497400000D-01
 S 1 1.00
     Exponent=  5.1190000000D-01 Coefficients=  1.0000000000D+00
 S 1 1.00
     Exponent=  1.5659000000D-01 Coefficients=  1.0000000000D+00
 S 1 1.00
     Exponent=  4.7900000000D-02 Coefficients=  1.0000000000D+00
 P 4 1.00
     Exponent=  1.8841800000D+01 Coefficients=  1.3887000000D-02
     Exponent=  4.1592400000D+00 Coefficients=  8.6279000000D-02
     Exponent=  1.2067100000D+00 Coefficients=  2.8874400000D-01
     Exponent=  3.8554000000D-01 Coefficients=  4.9941100000D-01
 P 1 1.00
     Exponent=  1.2194000000D-01 Coefficients=  1.0000000000D+00
 P 1 1.00
     Exponent=  3.8568000000D-02 Coefficients=  1.0000000000D+00
 D 2 1.00
     Exponent=  1.2067100000D+00 Coefficients=  2.6285200000D-01
     Exponent=  3.8554000000D-01 Coefficients=  8.0430000000D-01
 D 2 1.00
     Exponent=  1.2194000000D-01 Coefficients=  6.5350000000D-01
     Exponent=  3.8658000000D-02 Coefficients=  8.6360000000D-01
 ****
 Centers:       9
 S 5 1.00
     Exponent=  8.1040716000D+03 Coefficients=  8.0200000000D-04
     Exponent=  1.2160215000D+03 Coefficients=  6.1740000000D-03
     Exponent=  2.7723428000D+02 Coefficients=  3.1233000000D-02
     Exponent=  7.6904023000D+01 Coefficients=  1.1519800000D-01
     Exponent=  2.5874419000D+01 Coefficients=  2.9695100000D-01
 S 2 1.00
     Exponent=  9.3467670000D+00 Coefficients=  4.4734900000D-01
     Exponent=  3.5797940000D+00 Coefficients=  2.4500300000D-01
 S 1 1.00
     Exponent=  7.3961000000D-01 Coefficients=  1.0000000000D+00
 S 1 1.00
     Exponent=  2.2261700000D-01 Coefficients=  1.0000000000D+00
 S 1 1.00
     Exponent=  6.7006000000D-02 Coefficients=  1.0000000000D+00
 P 4 1.00
     Exponent=  2.6868987000D+01 Coefficients=  1.4478000000D-02
     Exponent=  5.9912270000D+00 Coefficients=  9.1156000000D-02
     Exponent=  1.7508420000D+00 Coefficients=  2.9742000000D-01
     Exponent=  5.6051100000D-01 Coefficients=  4.9379600000D-01
 P 1 1.00
     Exponent=  1.7594800000D-01 Coefficients=  1.0000000000D+00
 P 1 1.00
     Exponent=  5.5231000000D-02 Coefficients=  1.0000000000D+00
 D 2 1.00
     Exponent=  1.7508420000D+00 Coefficients=  2.2477400000D-01
     Exponent=  5.6051100000D-01 Coefficients=  6.5956200000D-01
 D 2 1.00
     Exponent=  1.7594800000D-01 Coefficients=  8.7135500000D-01
     Exponent=  5.5231000000D-02 Coefficients=  7.0421700000D-01
 ****
 Ernie: Thresh=  0.10000D-02 Tol=  0.10000D-05 Strict=F.
 The following finite field(s) will be applied:
 An electric field of              0.0000 -0.0008  0.0000
 In input orientation: -5.63388156D-04  2.97680080D-04 -4.83715160D-04
 There are   440 symmetry adapted cartesian basis functions of A   symmetry.
 There are   420 symmetry adapted basis functions of A   symmetry.
   420 basis functions,   880 primitive gaussians,   440 cartesian basis functions
    40 alpha electrons       40 beta electrons
       nuclear repulsion energy       604.8043466459 Hartrees.
 IExCor= 4336 DFT=T Ex+Corr=M062X ExCW=0 ScaHFX=  0.540000
 ScaDFX=  1.000000  1.000000  1.000000  1.000000 ScalE2=  1.000000  1.000000
 IRadAn=      5 IRanWt=     -1 IRanGd=            0 ICorTp=0 IEmpDi=  4
 NAtoms=   30 NActive=   30 NUniq=   30 SFac= 1.00D+00 NAtFMM=   60 NAOKFM=F Big=F
 Integral buffers will be    131072 words long.
 Raffenetti 2 integral format.
 Two-electron integral symmetry is turned on.
 Leave Link  301 at Mon Oct 31 15:21:52 2022, MaxMem=  8589934592 cpu:               1.0 elap:               0.1
 (Enter /usr/local/gaussian/g16a03/g16/l302.exe)
 NPDir=0 NMtPBC=     1 NCelOv=     1 NCel=       1 NClECP=     1 NCelD=      1
         NCelK=      1 NCelE2=     1 NClLst=     1 CellRange=     0.0.
 One-electron integrals computed using PRISM.
 One-electron integral symmetry used in STVInt
 NBasis=   420 RedAO= T EigKep=  2.49D-06  NBF=   420
 NBsUse=   420 1.00D-06 EigRej= -1.00D+00 NBFU=   420
 Precomputing XC quadrature grid using
 IXCGrd= 4 IRadAn=           5 IRanWt=          -1 IRanGd=           0 AccXCQ= 0.00D+00.
 Generated NRdTot=       0 NPtTot=           0 NUsed=           0 NTot=          32
 NSgBfM=   438   438   438   438   438 MxSgAt=    30 MxSgA2=    30.
 Leave Link  302 at Mon Oct 31 15:21:53 2022, MaxMem=  8589934592 cpu:               6.0 elap:               0.4
 (Enter /usr/local/gaussian/g16a03/g16/l303.exe)
 DipDrv:  MaxL=1.
 The nuclear repulsion energy is now       604.8043466459 hartrees.
 Leave Link  303 at Mon Oct 31 15:21:53 2022, MaxMem=  8589934592 cpu:               1.0 elap:               0.1
 (Enter /usr/local/gaussian/g16a03/g16/l401.exe)
 ExpMin= 3.24D-02 ExpMax= 8.10D+03 ExpMxC= 1.22D+03 IAcc=3 IRadAn=         5 AccDes= 0.00D+00
 Harris functional with IExCor= 1009 and IRadAn=       5 diagonalized for initial guess.
 HarFok:  IExCor= 1009 AccDes= 0.00D+00 IRadAn=         5 IDoV= 1 UseB2=F ITyADJ=14
 ICtDFT=  3500011 ScaDFX=  1.000000  1.000000  1.000000  1.000000
 FoFCou: FMM=F IPFlag=           0 FMFlag=      100000 FMFlg1=           0
         NFxFlg=           0 DoJE=T BraDBF=F KetDBF=T FulRan=T
         wScrn=  0.000000 ICntrl=       500 IOpCl=  0 I1Cent=   200000004 NGrid=           0
         NMat0=    1 NMatS0=      1 NMatT0=    0 NMatD0=    1 NMtDS0=    0 NMtDT0=    0
 Petite list used in FoFCou.
 Harris En= -409.285853903760    
 JPrj=0 DoOrth=F DoCkMO=F.
 Leave Link  401 at Mon Oct 31 15:21:55 2022, MaxMem=  8589934592 cpu:              28.1 elap:               1.8
 (Enter /usr/local/gaussian/g16a03/g16/l502.exe)
 Integral symmetry usage will be decided dynamically.
 Closed shell SCF:
 Using DIIS extrapolation, IDIIS=  1040.
 NGot=  8589934592 LenX=  8589535990 LenY=  8589341949
 Requested convergence on RMS density matrix=1.00D-08 within 128 cycles.
 Requested convergence on MAX density matrix=1.00D-06.
 Requested convergence on             energy=1.00D-06.
 No special actions if energy rises.
 Fock matrices will be formed incrementally for  20 cycles.

 Cycle   1  Pass 1  IDiag  1:
 FoFJK:  IHMeth= 1 ICntrl=       0 DoSepK=F KAlg= 0 I1Cent=           0 FoldK=F
 IRaf= 990000000 NMat=       1 IRICut=       1 DoRegI=T DoRafI=F ISym2E= 0 IDoP0=0 IntGTp=1.
 FoFCou: FMM=F IPFlag=           0 FMFlag=      100000 FMFlg1=           0
         NFxFlg=           0 DoJE=F BraDBF=F KetDBF=F FulRan=T
         wScrn=  0.000000 ICntrl=         0 IOpCl=  0 I1Cent=           0 NGrid=           0
         NMat0=    1 NMatS0=      1 NMatT0=    0 NMatD0=    1 NMtDS0=    0 NMtDT0=    0
 Symmetry not used in FoFCou.
 E= -409.085436925020    
 DIIS: error= 1.69D-02 at cycle   1 NSaved=   1.
 NSaved= 1 IEnMin= 1 EnMin= -409.085436925020     IErMin= 1 ErrMin= 1.69D-02
 ErrMax= 1.69D-02  0.00D+00 EMaxC= 1.00D-01 BMatC= 3.48D-01 BMatP= 3.48D-01
 IDIUse=3 WtCom= 8.31D-01 WtEn= 1.69D-01
 Coeff-Com:  0.100D+01
 Coeff-En:   0.100D+01
 Coeff:      0.100D+01
 Gap=     0.399 Goal=   None    Shift=    0.000
 GapD=    0.399 DampG=1.000 DampE=0.500 DampFc=0.5000 IDamp=-1.
 Damping current iteration by 5.00D-01
 RMSDP=8.49D-02 MaxDP=4.72D+00              OVMax= 1.48D-01

 Cycle   2  Pass 1  IDiag  1:
 RMSU=  1.24D-02    CP:  7.97D-01
 E= -409.245632342470     Delta-E=       -0.160195417449 Rises=F Damp=T
 DIIS: error= 4.97D-03 at cycle   2 NSaved=   2.
 NSaved= 2 IEnMin= 2 EnMin= -409.245632342470     IErMin= 2 ErrMin= 4.97D-03
 ErrMax= 4.97D-03  0.00D+00 EMaxC= 1.00D-01 BMatC= 2.57D-02 BMatP= 3.48D-01
 IDIUse=3 WtCom= 9.50D-01 WtEn= 4.97D-02
 Coeff-Com: -0.725D-01 0.107D+01
 Coeff-En:   0.000D+00 0.100D+01
 Coeff:     -0.689D-01 0.107D+01
 Gap=     0.410 Goal=   None    Shift=    0.000
 RMSDP=2.04D-02 MaxDP=1.14D+00 DE=-1.60D-01 OVMax= 7.18D-02

 Cycle   3  Pass 1  IDiag  1:
 RMSU=  9.93D-03    CP:  7.13D-01  1.46D+00
 E= -409.396996087845     Delta-E=       -0.151363745376 Rises=F Damp=F
 DIIS: error= 3.34D-03 at cycle   3 NSaved=   3.
 NSaved= 3 IEnMin= 3 EnMin= -409.396996087845     IErMin= 3 ErrMin= 3.34D-03
 ErrMax= 3.34D-03  0.00D+00 EMaxC= 1.00D-01 BMatC= 7.30D-03 BMatP= 2.57D-02
 IDIUse=3 WtCom= 9.67D-01 WtEn= 3.34D-02
 Coeff-Com: -0.747D-01 0.365D+00 0.710D+00
 Coeff-En:   0.000D+00 0.000D+00 0.100D+01
 Coeff:     -0.722D-01 0.352D+00 0.720D+00
 Gap=     0.395 Goal=   None    Shift=    0.000
 RMSDP=3.34D-03 MaxDP=2.71D-01 DE=-1.51D-01 OVMax= 1.79D-02

 Cycle   4  Pass 1  IDiag  1:
 RMSU=  1.88D-03    CP:  7.26D-01  1.50D+00  9.35D-01
 E= -409.401647497329     Delta-E=       -0.004651409484 Rises=F Damp=F
 DIIS: error= 1.20D-03 at cycle   4 NSaved=   4.
 NSaved= 4 IEnMin= 4 EnMin= -409.401647497329     IErMin= 4 ErrMin= 1.20D-03
 ErrMax= 1.20D-03  0.00D+00 EMaxC= 1.00D-01 BMatC= 1.52D-03 BMatP= 7.30D-03
 IDIUse=3 WtCom= 9.88D-01 WtEn= 1.20D-02
 Coeff-Com: -0.252D-01 0.736D-01 0.352D+00 0.600D+00
 Coeff-En:   0.000D+00 0.000D+00 0.142D+00 0.858D+00
 Coeff:     -0.249D-01 0.727D-01 0.349D+00 0.603D+00
 Gap=     0.392 Goal=   None    Shift=    0.000
 RMSDP=1.13D-03 MaxDP=9.15D-02 DE=-4.65D-03 OVMax= 6.06D-03

 Cycle   5  Pass 1  IDiag  1:
 RMSU=  1.02D-03    CP:  7.24D-01  1.50D+00  9.19D-01  8.94D-01
 E= -409.402957802773     Delta-E=       -0.001310305443 Rises=F Damp=F
 DIIS: error= 1.61D-04 at cycle   5 NSaved=   5.
 NSaved= 5 IEnMin= 5 EnMin= -409.402957802773     IErMin= 5 ErrMin= 1.61D-04
 ErrMax= 1.61D-04  0.00D+00 EMaxC= 1.00D-01 BMatC= 3.08D-05 BMatP= 1.52D-03
 IDIUse=3 WtCom= 9.98D-01 WtEn= 1.61D-03
 Coeff-Com: -0.393D-02 0.589D-02 0.765D-01 0.199D+00 0.723D+00
 Coeff-En:   0.000D+00 0.000D+00 0.000D+00 0.000D+00 0.100D+01
 Coeff:     -0.392D-02 0.588D-02 0.764D-01 0.198D+00 0.723D+00
 Gap=     0.393 Goal=   None    Shift=    0.000
 RMSDP=2.02D-04 MaxDP=2.14D-02 DE=-1.31D-03 OVMax= 9.70D-04

 Cycle   6  Pass 1  IDiag  1:
 RMSU=  1.77D-04    CP:  7.24D-01  1.51D+00  9.22D-01  8.89D-01  9.20D-01
 E= -409.402986569935     Delta-E=       -0.000028767162 Rises=F Damp=F
 DIIS: error= 2.75D-05 at cycle   6 NSaved=   6.
 NSaved= 6 IEnMin= 6 EnMin= -409.402986569935     IErMin= 6 ErrMin= 2.75D-05
 ErrMax= 2.75D-05  0.00D+00 EMaxC= 1.00D-01 BMatC= 2.00D-06 BMatP= 3.08D-05
 IDIUse=1 WtCom= 1.00D+00 WtEn= 0.00D+00
 Coeff-Com:  0.924D-04-0.208D-02 0.894D-02 0.384D-01 0.250D+00 0.705D+00
 Coeff:      0.924D-04-0.208D-02 0.894D-02 0.384D-01 0.250D+00 0.705D+00
 Gap=     0.393 Goal=   None    Shift=    0.000
 RMSDP=7.87D-05 MaxDP=3.62D-03 DE=-2.88D-05 OVMax= 2.41D-04

 Cycle   7  Pass 1  IDiag  1:
 RMSU=  7.36D-05    CP:  7.24D-01  1.51D+00  9.22D-01  8.98D-01  9.30D-01
                    CP:  9.94D-01
 E= -409.402988397253     Delta-E=       -0.000001827318 Rises=F Damp=F
 DIIS: error= 9.03D-06 at cycle   7 NSaved=   7.
 NSaved= 7 IEnMin= 7 EnMin= -409.402988397253     IErMin= 7 ErrMin= 9.03D-06
 ErrMax= 9.03D-06  0.00D+00 EMaxC= 1.00D-01 BMatC= 1.55D-07 BMatP= 2.00D-06
 IDIUse=1 WtCom= 1.00D+00 WtEn= 0.00D+00
 Coeff-Com:  0.624D-03-0.147D-02-0.758D-02-0.163D-01-0.233D-01 0.202D+00
 Coeff-Com:  0.846D+00
 Coeff:      0.624D-03-0.147D-02-0.758D-02-0.163D-01-0.233D-01 0.202D+00
 Coeff:      0.846D+00
 Gap=     0.393 Goal=   None    Shift=    0.000
 RMSDP=2.80D-05 MaxDP=1.33D-03 DE=-1.83D-06 OVMax= 8.59D-05

 Cycle   8  Pass 1  IDiag  1:
 RMSU=  1.62D-05    CP:  7.24D-01  1.51D+00  9.22D-01  9.01D-01  9.49D-01
                    CP:  1.04D+00  9.76D-01
 E= -409.402988578564     Delta-E=       -0.000000181311 Rises=F Damp=F
 DIIS: error= 1.42D-06 at cycle   8 NSaved=   8.
 NSaved= 8 IEnMin= 8 EnMin= -409.402988578564     IErMin= 8 ErrMin= 1.42D-06
 ErrMax= 1.42D-06  0.00D+00 EMaxC= 1.00D-01 BMatC= 3.26D-09 BMatP= 1.55D-07
 IDIUse=1 WtCom= 1.00D+00 WtEn= 0.00D+00
 Coeff-Com:  0.143D-03-0.293D-03-0.200D-02-0.485D-02-0.123D-01 0.238D-01
 Coeff-Com:  0.187D+00 0.808D+00
 Coeff:      0.143D-03-0.293D-03-0.200D-02-0.485D-02-0.123D-01 0.238D-01
 Coeff:      0.187D+00 0.808D+00
 Gap=     0.393 Goal=   None    Shift=    0.000
 RMSDP=4.56D-06 MaxDP=3.17D-04 DE=-1.81D-07 OVMax= 1.27D-05

 Cycle   9  Pass 1  IDiag  1:
 RMSU=  3.87D-06    CP:  7.24D-01  1.51D+00  9.22D-01  9.01D-01  9.50D-01
                    CP:  1.05D+00  9.87D-01  9.68D-01
 E= -409.402988581957     Delta-E=       -0.000000003393 Rises=F Damp=F
 DIIS: error= 5.41D-07 at cycle   9 NSaved=   9.
 NSaved= 9 IEnMin= 9 EnMin= -409.402988581957     IErMin= 9 ErrMin= 5.41D-07
 ErrMax= 5.41D-07  0.00D+00 EMaxC= 1.00D-01 BMatC= 4.28D-10 BMatP= 3.26D-09
 IDIUse=1 WtCom= 1.00D+00 WtEn= 0.00D+00
 Coeff-Com:  0.135D-04-0.193D-04-0.257D-03-0.728D-03-0.288D-02-0.349D-02
 Coeff-Com:  0.138D-01 0.277D+00 0.716D+00
 Coeff:      0.135D-04-0.193D-04-0.257D-03-0.728D-03-0.288D-02-0.349D-02
 Coeff:      0.138D-01 0.277D+00 0.716D+00
 Gap=     0.393 Goal=   None    Shift=    0.000
 RMSDP=1.26D-06 MaxDP=7.47D-05 DE=-3.39D-09 OVMax= 4.11D-06

 Cycle  10  Pass 1  IDiag  1:
 RMSU=  8.81D-07    CP:  7.24D-01  1.51D+00  9.22D-01  9.01D-01  9.50D-01
                    CP:  1.04D+00  9.90D-01  1.01D+00  9.56D-01
 E= -409.402988582400     Delta-E=       -0.000000000443 Rises=F Damp=F
 DIIS: error= 1.31D-07 at cycle  10 NSaved=  10.
 NSaved=10 IEnMin=10 EnMin= -409.402988582400     IErMin=10 ErrMin= 1.31D-07
 ErrMax= 1.31D-07  0.00D+00 EMaxC= 1.00D-01 BMatC= 3.58D-11 BMatP= 4.28D-10
 IDIUse=1 WtCom= 1.00D+00 WtEn= 0.00D+00
 Coeff-Com: -0.798D-05 0.196D-04 0.930D-04 0.196D-03 0.202D-03-0.306D-02
 Coeff-Com: -0.125D-01 0.195D-01 0.245D+00 0.750D+00
 Coeff:     -0.798D-05 0.196D-04 0.930D-04 0.196D-03 0.202D-03-0.306D-02
 Coeff:     -0.125D-01 0.195D-01 0.245D+00 0.750D+00
 Gap=     0.393 Goal=   None    Shift=    0.000
 RMSDP=3.10D-07 MaxDP=2.35D-05 DE=-4.43D-10 OVMax= 1.24D-06

 Cycle  11  Pass 1  IDiag  1:
 RMSU=  1.94D-07    CP:  7.24D-01  1.51D+00  9.22D-01  9.01D-01  9.50D-01
                    CP:  1.04D+00  9.90D-01  1.01D+00  9.95D-01  9.14D-01
 E= -409.402988582430     Delta-E=       -0.000000000029 Rises=F Damp=F
 DIIS: error= 2.96D-08 at cycle  11 NSaved=  11.
 NSaved=11 IEnMin=11 EnMin= -409.402988582430     IErMin=11 ErrMin= 2.96D-08
 ErrMax= 2.96D-08  0.00D+00 EMaxC= 1.00D-01 BMatC= 1.13D-12 BMatP= 3.58D-11
 IDIUse=1 WtCom= 1.00D+00 WtEn= 0.00D+00
 Coeff-Com: -0.237D-05 0.548D-05 0.333D-04 0.785D-04 0.177D-03-0.544D-03
 Coeff-Com: -0.368D-02-0.868D-02 0.271D-01 0.190D+00 0.796D+00
 Coeff:     -0.237D-05 0.548D-05 0.333D-04 0.785D-04 0.177D-03-0.544D-03
 Coeff:     -0.368D-02-0.868D-02 0.271D-01 0.190D+00 0.796D+00
 Gap=     0.393 Goal=   None    Shift=    0.000
 RMSDP=5.90D-08 MaxDP=3.49D-06 DE=-2.93D-11 OVMax= 2.58D-07

 Cycle  12  Pass 1  IDiag  1:
 RMSU=  5.32D-08    CP:  7.24D-01  1.51D+00  9.22D-01  9.01D-01  9.50D-01
                    CP:  1.04D+00  9.90D-01  1.01D+00  9.96D-01  9.25D-01
                    CP:  9.28D-01
 E= -409.402988582434     Delta-E=       -0.000000000004 Rises=F Damp=F
 DIIS: error= 6.80D-09 at cycle  12 NSaved=  12.
 NSaved=12 IEnMin=12 EnMin= -409.402988582434     IErMin=12 ErrMin= 6.80D-09
 ErrMax= 6.80D-09  0.00D+00 EMaxC= 1.00D-01 BMatC= 1.02D-13 BMatP= 1.13D-12
 IDIUse=1 WtCom= 1.00D+00 WtEn= 0.00D+00
 Coeff-Com: -0.168D-06 0.380D-06 0.377D-05 0.104D-04 0.348D-04 0.184D-04
 Coeff-Com: -0.357D-03-0.375D-02-0.659D-02 0.112D-01 0.246D+00 0.754D+00
 Coeff:     -0.168D-06 0.380D-06 0.377D-05 0.104D-04 0.348D-04 0.184D-04
 Coeff:     -0.357D-03-0.375D-02-0.659D-02 0.112D-01 0.246D+00 0.754D+00
 Gap=     0.393 Goal=   None    Shift=    0.000
 RMSDP=1.80D-08 MaxDP=9.42D-07 DE=-4.09D-12 OVMax= 6.76D-08

 Cycle  13  Pass 1  IDiag  1:
 RMSU=  1.58D-08    CP:  7.24D-01  1.51D+00  9.22D-01  9.01D-01  9.50D-01
                    CP:  1.04D+00  9.90D-01  1.01D+00  9.96D-01  9.28D-01
                    CP:  9.45D-01  9.10D-01
 E= -409.402988582389     Delta-E=        0.000000000045 Rises=F Damp=F
 DIIS: error= 2.29D-09 at cycle  13 NSaved=  13.
 NSaved=13 IEnMin=12 EnMin= -409.402988582434     IErMin=13 ErrMin= 2.29D-09
 ErrMax= 2.29D-09  0.00D+00 EMaxC= 1.00D-01 BMatC= 9.13D-15 BMatP= 1.02D-13
 IDIUse=1 WtCom= 1.00D+00 WtEn= 0.00D+00
 Coeff-Com:  0.117D-06-0.262D-06-0.106D-05-0.201D-05-0.800D-06 0.501D-04
 Coeff-Com:  0.149D-03-0.724D-03-0.441D-02-0.103D-01 0.265D-01 0.262D+00
 Coeff-Com:  0.727D+00
 Coeff:      0.117D-06-0.262D-06-0.106D-05-0.201D-05-0.800D-06 0.501D-04
 Coeff:      0.149D-03-0.724D-03-0.441D-02-0.103D-01 0.265D-01 0.262D+00
 Coeff:      0.727D+00
 Gap=     0.393 Goal=   None    Shift=    0.000
 RMSDP=4.69D-09 MaxDP=2.53D-07 DE= 4.51D-11 OVMax= 1.91D-08

 SCF Done:  E(RM062X) =  -409.402988582     A.U. after   13 cycles
            NFock= 13  Conv=0.47D-08     -V/T= 2.0063
 KE= 4.068484077091D+02 PE=-2.142993767998D+03 EE= 7.219380250607D+02
 Leave Link  502 at Mon Oct 31 15:24:48 2022, MaxMem=  8589934592 cpu:            2760.5 elap:             173.1
 (Enter /usr/local/gaussian/g16a03/g16/l801.exe)
 DoSCS=F DFT=T ScalE2(SS,OS)=  1.000000  1.000000
 Range of M.O.s used for correlation:     1   420
 NBasis=   420 NAE=    40 NBE=    40 NFC=     0 NFV=     0
 NROrb=    420 NOA=    40 NOB=    40 NVA=   380 NVB=   380

 **** Warning!!: The largest alpha MO coefficient is  0.88103784D+02

 Leave Link  801 at Mon Oct 31 15:24:48 2022, MaxMem=  8589934592 cpu:               0.7 elap:               0.1
 (Enter /usr/local/gaussian/g16a03/g16/l1002.exe)
 Minotr:  Closed shell wavefunction.
          Direct CPHF calculation.
          Differentiating once with respect to electric field.
                with respect to dipole field.
          Electric field/nuclear overlap derivatives assumed to be zero.
          Requested convergence is 1.0D-08 RMS, and 1.0D-07 maximum.
          Secondary convergence is 1.0D-12 RMS, and 1.0D-12 maximum.
          NewPWx=F KeepS1=T KeepF1=T KeepIn=T MapXYZ=F SortEE=F KeepMc=T.
         9298 words used for storage of precomputed grid.
 Two-electron integral symmetry used by symmetrizing perturbed Fock matrices.
          MDV=    8589934592 using IRadAn=       1.
          Solving linear equations simultaneously, MaxMat=     384.
          There are     3 degrees of freedom in the 1st order CPHF.  IDoFFX=0 NUNeed=     3.
      3 vectors produced by pass  0 Test12= 5.07D-13 3.33D-08 XBig12= 4.80D+01 1.01D+00.
 AX will form     3 AO Fock derivatives at one time.
 FoFJK:  IHMeth= 1 ICntrl=       0 DoSepK=F KAlg= 0 I1Cent=           0 FoldK=F
 IRaf= 980000000 NMat=       3 IRICut=       1 DoRegI=T DoRafI=F ISym2E=-1 IDoP0=0 IntGTp=1.
 FoFCou: FMM=F IPFlag=           0 FMFlag=      100000 FMFlg1=           0
         NFxFlg=           0 DoJE=F BraDBF=F KetDBF=F FulRan=T
         wScrn=  0.000000 ICntrl=         0 IOpCl=  0 I1Cent=           0 NGrid=           0
         NMat0=    3 NMatS0=      3 NMatT0=    0 NMatD0=    3 NMtDS0=    0 NMtDT0=    0
 Petite list used in FoFCou.
      3 vectors produced by pass  1 Test12= 5.07D-13 3.33D-08 XBig12= 4.71D+00 2.20D-01.
      3 vectors produced by pass  2 Test12= 5.07D-13 3.33D-08 XBig12= 5.23D-01 4.94D-02.
      3 vectors produced by pass  3 Test12= 5.07D-13 3.33D-08 XBig12= 5.51D-02 1.65D-02.
      3 vectors produced by pass  4 Test12= 5.07D-13 3.33D-08 XBig12= 7.27D-03 5.40D-03.
      3 vectors produced by pass  5 Test12= 5.07D-13 3.33D-08 XBig12= 1.01D-03 3.10D-03.
      3 vectors produced by pass  6 Test12= 5.07D-13 3.33D-08 XBig12= 9.19D-05 5.83D-04.
      3 vectors produced by pass  7 Test12= 5.07D-13 3.33D-08 XBig12= 1.11D-05 2.25D-04.
      3 vectors produced by pass  8 Test12= 5.07D-13 3.33D-08 XBig12= 6.80D-07 8.92D-05.
      3 vectors produced by pass  9 Test12= 5.07D-13 3.33D-08 XBig12= 5.93D-08 2.27D-05.
      3 vectors produced by pass 10 Test12= 5.07D-13 3.33D-08 XBig12= 8.64D-09 9.02D-06.
      3 vectors produced by pass 11 Test12= 5.07D-13 3.33D-08 XBig12= 5.48D-10 1.65D-06.
      3 vectors produced by pass 12 Test12= 5.07D-13 3.33D-08 XBig12= 2.41D-11 4.55D-07.
      2 vectors produced by pass 13 Test12= 5.07D-13 3.33D-08 XBig12= 9.78D-13 7.66D-08.
 InvSVY:  IOpt=1 It=  1 EMax= 8.88D-16
 Solved reduced A of dimension    41 with     3 vectors.
 FullF1:  Do perturbations      1 to       3.
 SCF Polarizability for W=    0.000000:
                1             2             3 
      1  0.124535D+03
      2  0.816272D+00  0.100889D+03
      3 -0.147915D+01  0.690048D+00  0.947854D+02
 Isotropic polarizability for W=    0.000000      106.74 Bohr**3.
 SCF Static Hyperpolarizability:
 K=  1 block:
                1 
      1  0.379160D+02
 K=  2 block:
                1             2 
      1 -0.117683D+02
      2 -0.387585D+01 -0.365887D+02
 K=  3 block:
                1             2             3 
      1 -0.582153D+00
      2 -0.432898D+01  0.873960D+00
      3 -0.332553D+01 -0.102569D+02 -0.512194D+01
 End of Minotr F.D. properties file   721 does not exist.
 End of Minotr F.D. properties file   722 does not exist.
 End of Minotr F.D. properties file   788 does not exist.
 Leave Link 1002 at Mon Oct 31 15:30:44 2022, MaxMem=  8589934592 cpu:            5673.6 elap:             355.9
 (Enter /usr/local/gaussian/g16a03/g16/l601.exe)
 Copying SCF densities to generalized density rwf, IOpCl= 0 IROHF=0.

 **********************************************************************

            Population analysis using the SCF density.

 **********************************************************************

 Orbital symmetries:
       Occupied  (A) (A) (A) (A) (A) (A) (A) (A) (A) (A) (A) (A)
                 (A) (A) (A) (A) (A) (A) (A) (A) (A) (A) (A) (A)
                 (A) (A) (A) (A) (A) (A) (A) (A) (A) (A) (A) (A)
                 (A) (A) (A) (A)
       Virtual   (A) (A) (A) (A) (A) (A) (A) (A) (A) (A) (A) (A)
                 (A) (A) (A) (A) (A) (A) (A) (A) (A) (A) (A) (A)
                 (A) (A) (A) (A) (A) (A) (A) (A) (A) (A) (A) (A)
                 (A) (A) (A) (A) (A) (A) (A) (A) (A) (A) (A) (A)
                 (A) (A) (A) (A) (A) (A) (A) (A) (A) (A) (A) (A)
                 (A) (A) (A) (A) (A) (A) (A) (A) (A) (A) (A) (A)
                 (A) (A) (A) (A) (A) (A) (A) (A) (A) (A) (A) (A)
                 (A) (A) (A) (A) (A) (A) (A) (A) (A) (A) (A) (A)
                 (A) (A) (A) (A) (A) (A) (A) (A) (A) (A) (A) (A)
                 (A) (A) (A) (A) (A) (A) (A) (A) (A) (A) (A) (A)
                 (A) (A) (A) (A) (A) (A) (A) (A) (A) (A) (A) (A)
                 (A) (A) (A) (A) (A) (A) (A) (A) (A) (A) (A) (A)
                 (A) (A) (A) (A) (A) (A) (A) (A) (A) (A) (A) (A)
                 (A) (A) (A) (A) (A) (A) (A) (A) (A) (A) (A) (A)
                 (A) (A) (A) (A) (A) (A) (A) (A) (A) (A) (A) (A)
                 (A) (A) (A) (A) (A) (A) (A) (A) (A) (A) (A) (A)
                 (A) (A) (A) (A) (A) (A) (A) (A) (A) (A) (A) (A)
                 (A) (A) (A) (A) (A) (A) (A) (A) (A) (A) (A) (A)
                 (A) (A) (A) (A) (A) (A) (A) (A) (A) (A) (A) (A)
                 (A) (A) (A) (A) (A) (A) (A) (A) (A) (A) (A) (A)
                 (A) (A) (A) (A) (A) (A) (A) (A) (A) (A) (A) (A)
                 (A) (A) (A) (A) (A) (A) (A) (A) (A) (A) (A) (A)
                 (A) (A) (A) (A) (A) (A) (A) (A) (A) (A) (A) (A)
                 (A) (A) (A) (A) (A) (A) (A) (A) (A) (A) (A) (A)
                 (A) (A) (A) (A) (A) (A) (A) (A) (A) (A) (A) (A)
                 (A) (A) (A) (A) (A) (A) (A) (A) (A) (A) (A) (A)
                 (A) (A) (A) (A) (A) (A) (A) (A) (A) (A) (A) (A)
                 (A) (A) (A) (A) (A) (A) (A) (A) (A) (A) (A) (A)
                 (A) (A) (A) (A) (A) (A) (A) (A) (A) (A) (A) (A)
                 (A) (A) (A) (A) (A) (A) (A) (A) (A) (A) (A) (A)
                 (A) (A) (A) (A) (A) (A) (A) (A) (A) (A) (A) (A)
                 (A) (A) (A) (A) (A) (A) (A) (A)
 The electronic state is 1-A.
 Alpha  occ. eigenvalues --  -15.02628 -10.75522 -10.75481 -10.75444 -10.75175
 Alpha  occ. eigenvalues --  -10.70478 -10.70394 -10.69443 -10.67576 -10.64784
 Alpha  occ. eigenvalues --   -1.28398  -1.08255  -1.04343  -1.01282  -0.98875
 Alpha  occ. eigenvalues --   -0.95277  -0.88200  -0.85074  -0.83805  -0.80761
 Alpha  occ. eigenvalues --   -0.76469  -0.74933  -0.71838  -0.69329  -0.68948
 Alpha  occ. eigenvalues --   -0.66623  -0.65739  -0.63484  -0.62632  -0.61594
 Alpha  occ. eigenvalues --   -0.61536  -0.59143  -0.57945  -0.57521  -0.57253
 Alpha  occ. eigenvalues --   -0.56725  -0.55454  -0.53013  -0.52129  -0.51904
 Alpha virt. eigenvalues --   -0.12565  -0.11037  -0.10806  -0.10378  -0.08648
 Alpha virt. eigenvalues --   -0.08601  -0.08433  -0.08067  -0.07847  -0.06928
 Alpha virt. eigenvalues --   -0.05788  -0.05496  -0.05318  -0.04997  -0.04926
 Alpha virt. eigenvalues --   -0.04764  -0.03873  -0.03479  -0.03003  -0.02684
 Alpha virt. eigenvalues --   -0.02499  -0.02106  -0.02028  -0.01240  -0.01091
 Alpha virt. eigenvalues --   -0.00839  -0.00758  -0.00396   0.00084   0.00281
 Alpha virt. eigenvalues --    0.00686   0.00725   0.01064   0.01389   0.01548
 Alpha virt. eigenvalues --    0.01690   0.01784   0.02050   0.02086   0.02417
 Alpha virt. eigenvalues --    0.02608   0.03351   0.03650   0.03873   0.04253
 Alpha virt. eigenvalues --    0.04293   0.04798   0.04966   0.05355   0.05851
 Alpha virt. eigenvalues --    0.05975   0.06297   0.06551   0.06770   0.07034
 Alpha virt. eigenvalues --    0.07594   0.07792   0.08084   0.08584   0.08728
 Alpha virt. eigenvalues --    0.09214   0.09403   0.09713   0.10098   0.10587
 Alpha virt. eigenvalues --    0.10885   0.11034   0.11715   0.12004   0.12640
 Alpha virt. eigenvalues --    0.13100   0.13165   0.13940   0.14175   0.14560
 Alpha virt. eigenvalues --    0.14782   0.15194   0.15686   0.16224   0.16299
 Alpha virt. eigenvalues --    0.16870   0.17046   0.17622   0.18087   0.18220
 Alpha virt. eigenvalues --    0.18477   0.19098   0.19511   0.19830   0.19961
 Alpha virt. eigenvalues --    0.20490   0.20794   0.21409   0.21636   0.22124
 Alpha virt. eigenvalues --    0.22475   0.22904   0.22995   0.23437   0.23878
 Alpha virt. eigenvalues --    0.24370   0.24473   0.24594   0.25350   0.25583
 Alpha virt. eigenvalues --    0.25932   0.26239   0.26673   0.27074   0.27285
 Alpha virt. eigenvalues --    0.27651   0.27924   0.28361   0.28567   0.28817
 Alpha virt. eigenvalues --    0.29283   0.29567   0.29751   0.30157   0.30545
 Alpha virt. eigenvalues --    0.30914   0.31313   0.31602   0.31957   0.32752
 Alpha virt. eigenvalues --    0.33203   0.33752   0.33919   0.34698   0.34936
 Alpha virt. eigenvalues --    0.35132   0.35577   0.35943   0.36328   0.36573
 Alpha virt. eigenvalues --    0.37046   0.37076   0.37816   0.38008   0.38348
 Alpha virt. eigenvalues --    0.38622   0.39110   0.39560   0.40055   0.40614
 Alpha virt. eigenvalues --    0.40817   0.40934   0.41356   0.41746   0.41995
 Alpha virt. eigenvalues --    0.42255   0.42671   0.43313   0.43972   0.43977
 Alpha virt. eigenvalues --    0.44461   0.44604   0.44980   0.45344   0.45569
 Alpha virt. eigenvalues --    0.46153   0.46967   0.47162   0.47778   0.48379
 Alpha virt. eigenvalues --    0.48740   0.48941   0.49218   0.49808   0.49939
 Alpha virt. eigenvalues --    0.51488   0.51565   0.52223   0.52632   0.53000
 Alpha virt. eigenvalues --    0.53681   0.53882   0.54476   0.54729   0.55536
 Alpha virt. eigenvalues --    0.56146   0.57088   0.57908   0.58801   0.58831
 Alpha virt. eigenvalues --    0.59768   0.60055   0.60718   0.60952   0.61355
 Alpha virt. eigenvalues --    0.61743   0.62543   0.62948   0.63737   0.64176
 Alpha virt. eigenvalues --    0.65220   0.65658   0.66570   0.66876   0.67560
 Alpha virt. eigenvalues --    0.68602   0.69253   0.70502   0.71332   0.72479
 Alpha virt. eigenvalues --    0.72997   0.74589   0.75242   0.76884   0.77399
 Alpha virt. eigenvalues --    0.78241   0.78769   0.79978   0.81211   0.81952
 Alpha virt. eigenvalues --    0.82764   0.83454   0.84598   0.85047   0.86251
 Alpha virt. eigenvalues --    0.86571   0.88181   0.89569   0.90306   0.90468
 Alpha virt. eigenvalues --    0.91903   0.93142   0.93746   0.94425   0.95323
 Alpha virt. eigenvalues --    0.96145   0.97353   0.98325   0.99528   0.99771
 Alpha virt. eigenvalues --    1.00696   1.01266   1.02645   1.03720   1.05158
 Alpha virt. eigenvalues --    1.06202   1.07005   1.07331   1.08326   1.08703
 Alpha virt. eigenvalues --    1.09653   1.10736   1.11914   1.12965   1.14985
 Alpha virt. eigenvalues --    1.15338   1.16236   1.16900   1.18455   1.19464
 Alpha virt. eigenvalues --    1.20193   1.21738   1.24061   1.24776   1.26103
 Alpha virt. eigenvalues --    1.26254   1.28237   1.29037   1.30609   1.30928
 Alpha virt. eigenvalues --    1.32381   1.32838   1.33447   1.34412   1.36275
 Alpha virt. eigenvalues --    1.36458   1.37801   1.39332   1.39777   1.40525
 Alpha virt. eigenvalues --    1.41353   1.42373   1.43013   1.43775   1.45750
 Alpha virt. eigenvalues --    1.46157   1.46893   1.47546   1.48646   1.49781
 Alpha virt. eigenvalues --    1.50567   1.52295   1.52408   1.52927   1.53281
 Alpha virt. eigenvalues --    1.54327   1.55244   1.56608   1.58009   1.59569
 Alpha virt. eigenvalues --    1.60183   1.61505   1.62603   1.63564   1.64937
 Alpha virt. eigenvalues --    1.65762   1.66351   1.68034   1.70110   1.71210
 Alpha virt. eigenvalues --    1.71843   1.72955   1.74159   1.75832   1.76053
 Alpha virt. eigenvalues --    1.77278   1.78006   1.80039   1.81772   1.82214
 Alpha virt. eigenvalues --    1.83227   1.84262   1.85936   1.87487   1.88851
 Alpha virt. eigenvalues --    1.90505   1.91540   1.92907   1.96050   1.96746
 Alpha virt. eigenvalues --    1.97422   1.98834   1.99325   2.00869   2.02836
 Alpha virt. eigenvalues --    2.03212   2.05648   2.06044   2.07853   2.08562
 Alpha virt. eigenvalues --    2.11993   2.13696   2.14374   2.16070   2.16707
 Alpha virt. eigenvalues --    2.17535   2.18109   2.19338   2.20932   2.25621
 Alpha virt. eigenvalues --    2.27351   2.29361   2.31340   2.32980   2.36294
 Alpha virt. eigenvalues --    2.38165   2.39806   2.42786   2.45421   2.47264
 Alpha virt. eigenvalues --    2.49265   2.50406   2.52976   2.54259   2.55445
 Alpha virt. eigenvalues --    2.59776   2.62393   2.66147   2.66334   2.71823
 Alpha virt. eigenvalues --    2.73059   2.75981   2.78936   2.83246   2.89895
 Alpha virt. eigenvalues --   21.87083  21.91142  22.00175  22.04389  22.07303
 Alpha virt. eigenvalues --   22.11285  22.17342  22.20723  22.23909  33.14071
          Condensed to atoms (all electrons):
               1          2          3          4          5          6
     1  C   34.436609 -11.801903   7.828023   0.032222   1.353223 -16.761402
     2  C  -11.801903  30.052180  -5.202601   1.295644  -5.121841   1.954089
     3  C    7.828023  -5.202601  34.631360  -0.509840   0.627152 -17.052436
     4  H    0.032222   1.295644  -0.509840   9.364618  -5.166644   0.800270
     5  H    1.353223  -5.121841   0.627152  -5.166644   7.653924  -0.026594
     6  C  -16.761402   1.954089 -17.052436   0.800270  -0.026594  45.787797
     7  H    0.853611   0.160966  -4.029677  -1.063118   0.589274  -0.072493
     8  H   -0.981943  -0.135575   0.086952   1.285028  -1.147057   2.505555
     9  N   -5.608135   1.651472   0.275047  -0.800699   0.937403  -2.265749
    10  H   -0.961956  -3.533849  -1.830818  -0.451104   0.192994   0.569094
    11  H    1.265597   0.882874  -0.103038  -0.571713   0.296488  -4.430217
    12  H    1.408434   0.865841  -0.876383   1.470519  -1.494313  -2.126332
    13  H    0.654747  -3.334750   1.482300  -1.649613   1.021154  -0.373343
    14  C   -2.803884  -0.704438  -3.771649  -0.657374   0.594499  -1.518765
    15  H    2.440965  -0.502219   0.934104  -0.085046  -0.031401  -1.756992
    16  H   -2.490802   0.168028  -2.967275  -0.004993   0.219583   3.782135
    17  H   -0.268191   0.215407  -0.131012  -0.156798   0.121008   0.390237
    18  C   -0.042645  -3.895793  -3.534092  -0.478622   0.679357  -3.099133
    19  C   -0.397173  -0.656852   1.344593  -0.488134   0.279874  -4.340747
    20  H   -0.071660   0.770032  -0.685496   0.039841   0.001813   0.729833
    21  H    0.146470  -1.816418   0.824580  -1.085113   0.413573  -0.148419
    22  C   -2.217843   0.732385  -3.667889   0.449395  -0.156845   3.152554
    23  H   -0.218490   0.328760  -1.166725  -0.098393   0.040314  -0.842820
    24  H   -0.287688  -0.153260   0.392240   0.057955  -0.015936   1.316358
    25  C   -0.122098  -0.026425  -0.626069   0.024060  -0.007323  -1.747574
    26  H   -0.098189   0.633265  -0.627828   0.173019  -0.026349  -0.241380
    27  H   -0.073609  -0.064241   0.726619  -0.018859   0.009932   1.972390
    28  H   -0.044833  -0.033204  -0.015770  -0.010412   0.000840  -0.253264
    29  H    0.019748  -0.015023  -0.050374   0.000884  -0.000966  -0.248197
    30  H    0.020046   0.029482   0.036805   0.009840  -0.001269   0.464419
               7          8          9         10         11         12
     1  C    0.853611  -0.981943  -5.608135  -0.961956   1.265597   1.408434
     2  C    0.160966  -0.135575   1.651472  -3.533849   0.882874   0.865841
     3  C   -4.029677   0.086952   0.275047  -1.830818  -0.103038  -0.876383
     4  H   -1.063118   1.285028  -0.800699  -0.451104  -0.571713   1.470519
     5  H    0.589274  -1.147057   0.937403   0.192994   0.296488  -1.494313
     6  C   -0.072493   2.505555  -2.265749   0.569094  -4.430217  -2.126332
     7  H    7.942590  -5.258262   0.600914  -2.122012   0.898054   0.143842
     8  H   -5.258262   9.078378   0.226568   2.301228  -1.842989   0.096216
     9  N    0.600914   0.226568  51.394171   0.342797  -0.654943  -1.551104
    10  H   -2.122012   2.301228   0.342797  15.183864  -6.865133  -0.678736
    11  H    0.898054  -1.842989  -0.654943  -6.865133  12.695517  -0.117973
    12  H    0.143842   0.096216  -1.551104  -0.678736  -0.117973  10.974290
    13  H    0.203412  -0.215863  -2.716376   0.166186   0.121203  -5.072932
    14  C    0.914280  -0.960673  -6.997180  -0.890095   1.154230   1.866288
    15  H    0.172127   0.053000  -3.581768  -0.102407  -0.347431   1.149204
    16  H    0.344280  -1.492640  -2.631134  -0.552357   0.859006  -0.703963
    17  H   -0.003537  -0.043557  -4.232044   0.166974   0.223682  -1.102738
    18  C    0.639111  -0.902763  -7.064104   0.979743   0.625548  -1.254600
    19  C    0.115161  -0.121050   6.099757  -1.422065   0.248503  -0.360028
    20  H    0.010069  -0.120940  -4.016619  -0.128719   0.185680   0.304307
    21  H    0.327156  -0.283380  -1.919679   0.488730  -0.389378  -0.446265
    22  C    0.099951  -0.111732  -2.400418   2.404261  -1.483899  -0.259074
    23  H    0.035807  -0.176097  -4.842845   0.051070   0.266172  -0.302008
    24  H   -0.005525   0.026868  -0.182184  -0.019363   0.177935   0.016126
    25  C    0.025157  -0.040453  -2.092281   0.761965  -0.185773  -0.050518
    26  H    0.029217  -0.085419  -1.711641  -1.851118   0.633107   0.028715
    27  H    0.076839  -0.049457   2.080448   0.172747  -1.929828  -0.047843
    28  H   -0.002545   0.004085   0.200527   0.177487  -0.204933  -0.006001
    29  H    0.001300  -0.006599  -0.268220   0.109722   0.066649   0.002383
    30  H    0.003569   0.002702   0.053130  -0.176926   0.159559  -0.001989
              13         14         15         16         17         18
     1  C    0.654747  -2.803884   2.440965  -2.490802  -0.268191  -0.042645
     2  C   -3.334750  -0.704438  -0.502219   0.168028   0.215407  -3.895793
     3  C    1.482300  -3.771649   0.934104  -2.967275  -0.131012  -3.534092
     4  H   -1.649613  -0.657374  -0.085046  -0.004993  -0.156798  -0.478622
     5  H    1.021154   0.594499  -0.031401   0.219583   0.121008   0.679357
     6  C   -0.373343  -1.518765  -1.756992   3.782135   0.390237  -3.099133
     7  H    0.203412   0.914280   0.172127   0.344280  -0.003537   0.639111
     8  H   -0.215863  -0.960673   0.053000  -1.492640  -0.043557  -0.902763
     9  N   -2.716376  -6.997180  -3.581768  -2.631134  -4.232044  -7.064104
    10  H    0.166186  -0.890095  -0.102407  -0.552357   0.166974   0.979743
    11  H    0.121203   1.154230  -0.347431   0.859006   0.223682   0.625548
    12  H   -5.072932   1.866288   1.149204  -0.703963  -1.102738  -1.254600
    13  H    9.509069  -1.286369   0.109959  -0.541348   0.645206   2.605717
    14  C   -1.286369  17.797754  -0.234912  -0.557558   0.606672  -1.535164
    15  H    0.109959  -0.234912  14.394962  -4.961666  -2.685220  -1.861803
    16  H   -0.541348  -0.557558  -4.961666  11.429453  -1.920706   1.050189
    17  H    0.645206   0.606672  -2.685220  -1.920706   9.654848   1.401307
    18  C    2.605717  -1.535164  -1.861803   1.050189   1.401307  36.487312
    19  C    0.203665  -2.582617   0.756519   0.385321  -2.100131 -15.363412
    20  H   -0.856045   0.826428   0.541220   0.336117  -0.045988  -1.944679
    21  H    0.640987   0.302350  -0.225577   0.314604  -0.233608   0.043754
    22  C    0.181258  -0.217920  -0.472539   0.578869   0.981892  -1.898571
    23  H   -0.162928   1.657437  -1.015943   0.712624  -0.285809   2.680731
    24  H    0.154465   0.535181   0.251097   0.011927   0.383468   1.895983
    25  C   -0.062402   0.836365  -0.192968   0.171889   0.136527   0.859346
    26  H    0.010308   1.153139   0.539740   0.041715   0.119341   0.653874
    27  H    0.135998  -0.979337  -1.552538   0.313659  -0.197017  -2.319378
    28  H   -0.005945  -0.019432  -0.121329   0.015948  -0.016124  -0.209248
    29  H   -0.002269   0.029557   0.059680   0.001455   0.009837   0.596610
    30  H   -0.004857  -0.007737   0.159698  -0.041565   0.052127  -0.504837
              19         20         21         22         23         24
     1  C   -0.397173  -0.071660   0.146470  -2.217843  -0.218490  -0.287688
     2  C   -0.656852   0.770032  -1.816418   0.732385   0.328760  -0.153260
     3  C    1.344593  -0.685496   0.824580  -3.667889  -1.166725   0.392240
     4  H   -0.488134   0.039841  -1.085113   0.449395  -0.098393   0.057955
     5  H    0.279874   0.001813   0.413573  -0.156845   0.040314  -0.015936
     6  C   -4.340747   0.729833  -0.148419   3.152554  -0.842820   1.316358
     7  H    0.115161   0.010069   0.327156   0.099951   0.035807  -0.005525
     8  H   -0.121050  -0.120940  -0.283380  -0.111732  -0.176097   0.026868
     9  N    6.099757  -4.016619  -1.919679  -2.400418  -4.842845  -0.182184
    10  H   -1.422065  -0.128719   0.488730   2.404261   0.051070  -0.019363
    11  H    0.248503   0.185680  -0.389378  -1.483899   0.266172   0.177935
    12  H   -0.360028   0.304307  -0.446265  -0.259074  -0.302008   0.016126
    13  H    0.203665  -0.856045   0.640987   0.181258  -0.162928   0.154465
    14  C   -2.582617   0.826428   0.302350  -0.217920   1.657437   0.535181
    15  H    0.756519   0.541220  -0.225577  -0.472539  -1.015943   0.251097
    16  H    0.385321   0.336117   0.314604   0.578869   0.712624   0.011927
    17  H   -2.100131  -0.045988  -0.233608   0.981892  -0.285809   0.383468
    18  C  -15.363412  -1.944679   0.043754  -1.898571   2.680731   1.895983
    19  C   41.102534  -3.013397   1.719077 -13.135315  -1.923804  -5.420981
    20  H   -3.013397  12.438015  -7.034468   3.294285  -0.260663   0.858351
    21  H    1.719077  -7.034468  14.456847  -3.360460   1.373978  -1.449332
    22  C  -13.135315   3.294285  -3.360460  35.857792  -2.139778   0.074306
    23  H   -1.923804  -0.260663   1.373978  -2.139778  14.095676  -6.496030
    24  H   -5.420981   0.858351  -1.449332   0.074306  -6.496030  10.335398
    25  C    1.006272  -0.161120   0.411023 -11.558570   1.530269   0.168878
    26  H    1.771797  -0.094341  -1.293715  -2.874578  -0.298426   0.196416
    27  H   -0.047501   0.199203   0.304970   0.114357  -0.109338  -0.436553
    28  H   -1.524683   0.056085   0.285145   2.123695   0.740141  -1.487942
    29  H    2.087326   0.012893   0.065545  -1.671381   0.116866   0.340357
    30  H   -0.909183  -0.084433  -0.214634   3.550824  -1.183955   0.659472
              25         26         27         28         29         30
     1  C   -0.122098  -0.098189  -0.073609  -0.044833   0.019748   0.020046
     2  C   -0.026425   0.633265  -0.064241  -0.033204  -0.015023   0.029482
     3  C   -0.626069  -0.627828   0.726619  -0.015770  -0.050374   0.036805
     4  H    0.024060   0.173019  -0.018859  -0.010412   0.000884   0.009840
     5  H   -0.007323  -0.026349   0.009932   0.000840  -0.000966  -0.001269
     6  C   -1.747574  -0.241380   1.972390  -0.253264  -0.248197   0.464419
     7  H    0.025157   0.029217   0.076839  -0.002545   0.001300   0.003569
     8  H   -0.040453  -0.085419  -0.049457   0.004085  -0.006599   0.002702
     9  N   -2.092281  -1.711641   2.080448   0.200527  -0.268220   0.053130
    10  H    0.761965  -1.851118   0.172747   0.177487   0.109722  -0.176926
    11  H   -0.185773   0.633107  -1.929828  -0.204933   0.066649   0.159559
    12  H   -0.050518   0.028715  -0.047843  -0.006001   0.002383  -0.001989
    13  H   -0.062402   0.010308   0.135998  -0.005945  -0.002269  -0.004857
    14  C    0.836365   1.153139  -0.979337  -0.019432   0.029557  -0.007737
    15  H   -0.192968   0.539740  -1.552538  -0.121329   0.059680   0.159698
    16  H    0.171889   0.041715   0.313659   0.015948   0.001455  -0.041565
    17  H    0.136527   0.119341  -0.197017  -0.016124   0.009837   0.052127
    18  C    0.859346   0.653874  -2.319378  -0.209248   0.596610  -0.504837
    19  C    1.006272   1.771797  -0.047501  -1.524683   2.087326  -0.909183
    20  H   -0.161120  -0.094341   0.199203   0.056085   0.012893  -0.084433
    21  H    0.411023  -1.293715   0.304970   0.285145   0.065545  -0.214634
    22  C  -11.558570  -2.874578   0.114357   2.123695  -1.671381   3.550824
    23  H    1.530269  -0.298426  -0.109338   0.740141   0.116866  -1.183955
    24  H    0.168878   0.196416  -0.436553  -1.487942   0.340357   0.659472
    25  C   19.116631  -0.602656  -2.184685  -1.022968  -0.288054  -2.941330
    26  H   -0.602656  10.737889  -4.661126  -1.446571  -0.290163   1.415642
    27  H   -2.184685  -4.661126  11.311480   2.232108  -1.486892  -1.627536
    28  H   -1.022968  -1.446571   2.232108   7.091190  -2.788937  -1.996852
    29  H   -0.288054  -0.290163  -1.486892  -2.788937   6.947214  -1.761273
    30  H   -2.941330   1.415642  -1.627536  -1.996852  -1.761273   6.639962
 Mulliken charges:
               1
     1  C    0.792748
     2  C    3.257971
     3  C    3.659200
     4  H   -0.706823
     5  H   -0.835863
     6  C   -0.118876
     7  H   -0.629517
     8  H   -0.690132
     9  N   -1.325110
    10  H   -1.482204
    11  H   -0.632560
    12  H   -0.873364
    13  H   -0.560596
    14  C    3.450924
    15  H   -0.830515
    16  H   -0.870795
    17  H   -0.686051
    18  C    0.710264
    19  C    2.686676
    20  H   -1.085603
    21  H   -1.218343
    22  C    0.030986
    23  H   -1.105793
    24  H   -0.897985
    25  C    4.864885
    26  H   -0.933681
    27  H   -0.865010
    28  H   -0.716260
    29  H   -0.589677
    30  H   -0.798900
 Sum of Mulliken charges =   1.00000
 Mulliken charges with hydrogens summed into heavy atoms:
               1
     1  C   -0.641211
     2  C    1.715285
     3  C    2.339552
     6  C   -2.233640
     9  N   -1.325110
    14  C    1.063564
    18  C   -1.593682
    19  C    0.682898
    22  C   -1.767705
    25  C    2.760048
 Electronic spatial extent (au):  <R**2>=           1932.5561
 Charge=              1.0000 electrons
 Dipole moment (field-independent basis, Debye):
    X=              2.7864    Y=             -0.9560    Z=              0.3954  Tot=              2.9722
 Quadrupole moment (field-independent basis, Debye-Ang):
   XX=            -44.4676   YY=            -55.0343   ZZ=            -56.5946
   XY=              0.0430   XZ=              0.5774   YZ=             -0.4968
 Traceless Quadrupole moment (field-independent basis, Debye-Ang):
   XX=              7.5646   YY=             -3.0021   ZZ=             -4.5625
   XY=              0.0430   XZ=              0.5774   YZ=             -0.4968
 Octapole moment (field-independent basis, Debye-Ang**2):
  XXX=             16.1300  YYY=             -1.9414  ZZZ=              3.6953  XYY=              8.1973
  XXY=              5.3137  XXZ=             -3.3310  XZZ=              4.9154  YZZ=             -4.7919
  YYZ=              1.4626  XYZ=             -1.2952
 Hexadecapole moment (field-independent basis, Debye-Ang**3):
 XXXX=          -1672.3139 YYYY=           -413.1640 ZZZZ=           -284.3925 XXXY=             -9.6775
 XXXZ=             -3.1477 YYYX=              4.2534 YYYZ=             -2.0883 ZZZX=              4.9825
 ZZZY=             -4.1845 XXYY=           -357.8177 XXZZ=           -343.8106 YYZZ=           -114.9340
 XXYZ=              1.5149 YYXZ=              0.3236 ZZXY=              1.2274
 N-N= 6.048043466459D+02 E-N=-2.142993767956D+03  KE= 4.068484077091D+02
  Exact polarizability: 124.535   0.816 100.889  -1.479   0.690  94.785
 Approx polarizability: 128.389   0.652 125.027  -0.454   0.411 123.307
 No NMR shielding tensors so no spin-rotation constants.
 Leave Link  601 at Mon Oct 31 15:30:44 2022, MaxMem=  8589934592 cpu:               4.9 elap:               0.4
 (Enter /usr/local/gaussian/g16a03/g16/l9999.exe)

 ----------------------------------------------------------------------

 Electric dipole moment (input orientation):
 (Debye = 10**-18 statcoulomb cm , SI units = C m)
                  (au)            (Debye)         (10**-30 SI)
   Tot        0.116937D+01      0.297224D+01      0.991432D+01
   x         -0.531893D+00     -0.135194D+01     -0.450958D+01
   y          0.888033D+00      0.225715D+01      0.752906D+01
   z          0.543976D+00      0.138265D+01      0.461202D+01

 Dipole polarizability, Alpha (input orientation).
 (esu units = cm**3 , SI units = C**2 m**2 J**-1)
 Alpha(0;0):
               (au)            (10**-24 esu)      (10**-40 SI)
   iso        0.106737D+03      0.158168D+02      0.175985D+02
   aniso      0.273992D+02      0.406015D+01      0.451753D+01
   xx         0.101948D+03      0.151072D+02      0.168090D+02
   yx        -0.688915D+01     -0.102087D+01     -0.113587D+01
   yy         0.103654D+03      0.153599D+02      0.170902D+02
   zx        -0.520586D+01     -0.771428D+00     -0.858330D+00
   zy         0.113349D+02      0.167966D+01      0.186888D+01
   zz         0.114608D+03      0.169832D+02      0.188963D+02

 First dipole hyperpolarizability, Beta (input orientation).
 ||, _|_  parallel and perpendicular components, (z) with respect to z axis,
 vector components x,y,z.  Values do not include the 1/n! factor of 1/2.
 (esu units = statvolt**-1 cm**4 , SI units = C**3 m**3 J**-2)
 Beta(0;0,0):
               (au)            (10**-30 esu)      (10**-50 SI)
   || (z)    -0.672906D+01     -0.581338D-01     -0.215758D-01
   _|_(z)    -0.224302D+01     -0.193779D-01     -0.719193D-02
   x         -0.163570D+03     -0.141312D+01     -0.524465D+00
   y          0.108322D+03      0.935815D+00      0.347319D+00
   z         -0.336453D+02     -0.290669D+00     -0.107879D+00
   ||         0.398099D+02      0.343927D+00      0.127645D+00
   xxx       -0.189801D+02     -0.163974D+00     -0.608572D-01
   xxy        0.349376D+01      0.301834D-01      0.112023D-01
   yxy       -0.164885D+02     -0.142448D+00     -0.528681D-01
   yyy        0.176691D+02      0.152647D+00      0.566534D-01
   xxz       -0.731467D+01     -0.631931D-01     -0.234535D-01
   yxz       -0.620704D+01     -0.536239D-01     -0.199020D-01
   yyz        0.221321D+01      0.191204D-01      0.709634D-02
   zxz       -0.190547D+02     -0.164618D+00     -0.610962D-01
   zyz        0.149444D+02      0.129108D+00      0.479172D-01
   zzz       -0.611364D+01     -0.528171D-01     -0.196025D-01

 ----------------------------------------------------------------------

 Dipole orientation:
     6         -7.11900813         -2.39890219         -6.27937737
     6         -5.23056993         -4.52763381         -5.91976364
     6         -2.85588140         -3.47822839         -7.16212019
     1         -5.85794773         -6.23732569         -6.88294793
     1         -4.98751022         -4.97471341         -3.93058114
     6         -3.90301642         -2.28902095         -9.54715496
     1         -1.45753552         -4.91594642         -7.60262252
     1         -1.95417828         -2.06753417         -5.95989523
     7         -6.41623839         -1.11261356         -8.77960537
     1         -4.30388849         -3.72093339        -10.96226936
     1         -2.71795643         -0.84231900        -10.38563353
     1         -6.94023121         -0.98543403         -4.80042019
     1         -9.07519742         -3.00464131         -6.37525528
     6         -6.09418710          1.65181542         -8.36226094
     1         -5.53816908          2.55030967        -10.11928362
     1         -4.63283236          1.93915421         -6.94881065
     1         -7.87123910          2.44102162         -7.69853290
     6         -8.49560069         -1.60372382        -10.68810458
     6         -8.33920871         -0.25794532        -13.22099601
     1        -10.23583401         -1.03736314         -9.74767697
     1         -8.54152125         -3.64800504        -10.93610490
     6         -6.14004052         -0.88858022        -14.97727119
     1         -8.47512016          1.78340544        -12.95670949
     1        -10.09668268         -0.78649985        -14.16895007
     6         -6.53956703          0.22523364        -17.60176392
     1         -5.93205201         -2.93901245        -15.12106372
     1         -4.36641166         -0.16499397        -14.21131684
     1         -8.24374111         -0.53442053        -18.47497108
     1         -4.95122784         -0.20579523        -18.83457175
     1         -6.73357305          2.27517779        -17.51562219

 Electric dipole moment (dipole orientation):
 (Debye = 10**-18 statcoulomb cm , SI units = C m)
                  (au)            (Debye)         (10**-30 SI)
   Tot        0.116937D+01      0.297224D+01      0.991432D+01
   x          0.000000D+00      0.000000D+00      0.000000D+00
   y          0.000000D+00      0.000000D+00      0.000000D+00
   z          0.116937D+01      0.297224D+01      0.991432D+01

 Dipole polarizability, Alpha (dipole orientation).
 (esu units = cm**3 , SI units = C**2 m**2 J**-1)
 Alpha(0;0):
               (au)            (10**-24 esu)      (10**-40 SI)
   iso        0.106737D+03      0.158168D+02      0.175985D+02
   aniso      0.273992D+02      0.406015D+01      0.451753D+01
   xx         0.100236D+03      0.148535D+02      0.165268D+02
   yx        -0.416578D+01     -0.617305D+00     -0.686845D+00
   yy         0.993313D+02      0.147194D+02      0.163775D+02
   zx         0.338572D+01      0.501711D+00      0.558229D+00
   zy        -0.872878D+01     -0.129347D+01     -0.143918D+01
   zz         0.120642D+03      0.178774D+02      0.198913D+02

 First dipole hyperpolarizability, Beta (dipole orientation).
 ||, _|_  parallel and perpendicular components, (z) with respect to z axis,
 vector components x,y,z.  Values do not include the 1/n! factor of 1/2.
 (esu units = statvolt**-1 cm**4 , SI units = C**3 m**3 J**-2)
 Beta(0;0,0):
               (au)            (10**-30 esu)      (10**-50 SI)
   || (z)     0.282020D+02      0.243643D+00      0.904259D-01
   _|_(z)     0.940067D+01      0.812145D-01      0.301420D-01
   x         -0.130240D+03     -0.112517D+01     -0.417595D+00
   y          0.526741D+02      0.455064D+00      0.168892D+00
   z          0.141010D+03      0.121822D+01      0.452129D+00
   ||         0.398099D+02      0.343927D+00      0.127645D+00
   xxx       -0.314976D+02     -0.272115D+00     -0.100993D+00
   xxy        0.730211D+01      0.630845D-01      0.234132D-01
   yxy       -0.103750D+02     -0.896316D-01     -0.332659D-01
   yyy        0.134557D+02      0.116247D+00      0.431439D-01
   xxz       -0.184731D+01     -0.159593D-01     -0.592315D-02
   yxz       -0.429989D+01     -0.371477D-01     -0.137870D-01
   yyz        0.667113D+01      0.576334D-01      0.213901D-01
   zxz       -0.154063D+01     -0.133098D-01     -0.493982D-02
   zyz       -0.319978D+01     -0.276436D-01     -0.102597D-01
   zzz        0.421795D+02      0.364398D+00      0.135243D+00

 ----------------------------------------------------------------------
 1\1\GINC-MD08\SP\RM062X\Gen\C9H20N1(1+)\SOPHIEC\31-Oct-2022\0\\#P M062
 X/Gen field=Y-8 int=(grid=ultrafine) polar=Dipole\\c4mpyr_eGeom\\1,1\C
 ,0,-2.0231,-4.18137,-2.29528\C,0,-1.51702,-4.48435,-0.89675\C,0,-0.007
 88,-4.35061,-1.05271\H,0,-1.78359,-5.49831,-0.5978\H,0,-1.94113,-3.798
 11,-0.16891\C,0,0.23868,-5.0581,-2.36977\H,0,0.55427,-4.81453,-0.2468\
 H,0,0.28852,-3.30231,-1.10663\N,0,-0.94145,-4.68569,-3.25851\H,0,0.218
 48,-6.13628,-2.23918\H,0,1.15954,-4.78298,-2.87231\H,0,-2.1215,-3.1111
 6,-2.4562\H,0,-2.96459,-4.65832,-2.54631\C,0,-0.55067,-3.59072,-4.1891
 8\H,0,0.23702,-3.93912,-4.84894\H,0,-0.19092,-2.74819,-3.60496\H,0,-1.
 41956,-3.29244,-4.77068\C,0,-1.48832,-5.86965,-4.03146\C,0,-0.63969,-6
 .43617,-5.15815\H,0,-2.43488,-5.52709,-4.44643\H,0,-1.70453,-6.63103,-
 3.28204\C,0,0.70379,-7.06996,-4.80772\H,0,-0.5104,-5.69187,-5.94615\H,
 0,-1.27615,-7.20598,-5.60212\C,0,1.29289,-7.81708,-5.99755\H,0,0.57712
 ,-7.75976,-3.96906\H,0,1.41573,-6.30869,-4.48304\H,0,0.63383,-8.62436,
 -6.31742\H,0,2.25768,-8.25266,-5.7455\H,0,1.43973,-7.14886,-6.84684\\V
 ersion=ES64L-G16RevA.03\State=1-A\HF=-409.4029886\RMSD=4.693e-09\Dipol
 e=-0.5318931,0.8880328,0.543976\Polar=101.9481262,-6.8891516,103.65389
 14,-5.2058573,11.3349321,114.6082226\HyperPolar=-18.980144,3.4937588,-
 16.4885064,17.6690758,-7.3146715,-6.207035,2.2132052,-19.0546848,14.94
 44025,-6.1136361\Quadrupole=-2.3397151,0.3426265,1.9970885,-2.0746645,
 -1.552,3.588572\PG=C01 [X(C9H20N1)]\\@


 The hours that make us happy make us wise.
                         -- John Masefield
 Job cpu time:       0 days  2 hours 21 minutes 21.6 seconds.
 Elapsed time:       0 days  0 hours  8 minutes 52.3 seconds.
 File lengths (MBytes):  RWF=     94 Int=      0 D2E=      0 Chk=     13 Scr=      1
 Normal termination of Gaussian 16 at Mon Oct 31 15:30:44 2022.
Done.
Output directory in: /monfs01/projects/sn29/sophiec/md/polarisabilities/c4mpyr/minusY/g16.10108895
