No checkpoint file specified...
total 0
 Entering Gaussian System, Link 0=g16
 Initial command:
 /usr/local/gaussian/g16a03/g16/l1.exe "/tmp/p2015120004.sophiec/g16.10108899/scratch/Gau-12882.inp" -scrdir="/tmp/p2015120004.sophiec/g16.10108899/scratch/"
 Entering Link 1 = /usr/local/gaussian/g16a03/g16/l1.exe PID=     12883.
  
 Copyright (c) 1988,1990,1992,1993,1995,1998,2003,2009,2016,
            Gaussian, Inc.  All Rights Reserved.
  
 This is part of the Gaussian(R) 16 program.  It is based on
 the Gaussian(R) 09 system (copyright 2009, Gaussian, Inc.),
 the Gaussian(R) 03 system (copyright 2003, Gaussian, Inc.),
 the Gaussian(R) 98 system (copyright 1998, Gaussian, Inc.),
 the Gaussian(R) 94 system (copyright 1995, Gaussian, Inc.),
 the Gaussian 92(TM) system (copyright 1992, Gaussian, Inc.),
 the Gaussian 90(TM) system (copyright 1990, Gaussian, Inc.),
 the Gaussian 88(TM) system (copyright 1988, Gaussian, Inc.),
 the Gaussian 86(TM) system (copyright 1986, Carnegie Mellon
 University), and the Gaussian 82(TM) system (copyright 1983,
 Carnegie Mellon University). Gaussian is a federally registered
 trademark of Gaussian, Inc.
  
 This software contains proprietary and confidential information,
 including trade secrets, belonging to Gaussian, Inc.
  
 This software is provided under written license and may be
 used, copied, transmitted, or stored only in accord with that
 written license.
  
 The following legend is applicable only to US Government
 contracts under FAR:
  
                    RESTRICTED RIGHTS LEGEND
  
 Use, reproduction and disclosure by the US Government is
 subject to restrictions as set forth in subparagraphs (a)
 and (c) of the Commercial Computer Software - Restricted
 Rights clause in FAR 52.227-19.
  
 Gaussian, Inc.
 340 Quinnipiac St., Bldg. 40, Wallingford CT 06492
  
  
 ---------------------------------------------------------------
 Warning -- This program may not be used in any manner that
 competes with the business of Gaussian, Inc. or will provide
 assistance to any competitor of Gaussian, Inc.  The licensee
 of this program is prohibited from giving any competitor of
 Gaussian, Inc. access to this program.  By using this program,
 the user acknowledges that Gaussian, Inc. is engaged in the
 business of creating and licensing software in the field of
 computational chemistry and represents and warrants to the
 licensee that it is not a competitor of Gaussian, Inc. and that
 it will not use this program in any manner prohibited above.
 ---------------------------------------------------------------
  

 Cite this work as:
 Gaussian 16, Revision A.03,
 M. J. Frisch, G. W. Trucks, H. B. Schlegel, G. E. Scuseria, 
 M. A. Robb, J. R. Cheeseman, G. Scalmani, V. Barone, 
 G. A. Petersson, H. Nakatsuji, X. Li, M. Caricato, A. V. Marenich, 
 J. Bloino, B. G. Janesko, R. Gomperts, B. Mennucci, H. P. Hratchian, 
 J. V. Ortiz, A. F. Izmaylov, J. L. Sonnenberg, D. Williams-Young, 
 F. Ding, F. Lipparini, F. Egidi, J. Goings, B. Peng, A. Petrone, 
 T. Henderson, D. Ranasinghe, V. G. Zakrzewski, J. Gao, N. Rega, 
 G. Zheng, W. Liang, M. Hada, M. Ehara, K. Toyota, R. Fukuda, 
 J. Hasegawa, M. Ishida, T. Nakajima, Y. Honda, O. Kitao, H. Nakai, 
 T. Vreven, K. Throssell, J. A. Montgomery, Jr., J. E. Peralta, 
 F. Ogliaro, M. J. Bearpark, J. J. Heyd, E. N. Brothers, K. N. Kudin, 
 V. N. Staroverov, T. A. Keith, R. Kobayashi, J. Normand, 
 K. Raghavachari, A. P. Rendell, J. C. Burant, S. S. Iyengar, 
 J. Tomasi, M. Cossi, J. M. Millam, M. Klene, C. Adamo, R. Cammi, 
 J. W. Ochterski, R. L. Martin, K. Morokuma, O. Farkas, 
 J. B. Foresman, and D. J. Fox, Gaussian, Inc., Wallingford CT, 2016.
 
 ******************************************
 Gaussian 16:  ES64L-G16RevA.03 25-Dec-2016
                31-Oct-2022 
 ******************************************
 %chk=spec.chk
 %mem=64gb
 %nproc=16
 Will use up to   16 processors via shared memory.
 --------------------------------------------------------
 #P M062X/Gen field=Z+8 int=(grid=ultrafine) polar=Dipole
 --------------------------------------------------------
 1/38=1,172=1/1;
 2/12=2,17=6,18=5,40=1/2;
 3/5=7,11=2,14=3,15=8,25=1,30=1,74=-55,75=-5/1,2,3;
 4//1;
 5/5=2,38=5,98=1/2;
 8/6=4,10=90,11=11/1;
 10/6=1,13=10,17=1/2;
 6/7=2,8=2,9=2,10=2,28=1/1;
 99/5=1,9=1/99;
 Leave Link    1 at Mon Oct 31 15:29:16 2022, MaxMem=  8589934592 cpu:               0.8 elap:               0.1
 (Enter /usr/local/gaussian/g16a03/g16/l101.exe)
 ------------
 c4mpyr_eGeom
 ------------
 Symbolic Z-matrix:
 Charge =  1 Multiplicity = 1
 C                    -2.0231   -4.18137  -2.29528 
 C                    -1.51702  -4.48435  -0.89675 
 C                    -0.00788  -4.35061  -1.05271 
 H                    -1.78359  -5.49831  -0.5978 
 H                    -1.94113  -3.79811  -0.16891 
 C                     0.23868  -5.0581   -2.36977 
 H                     0.55427  -4.81453  -0.2468 
 H                     0.28852  -3.30231  -1.10663 
 N                    -0.94145  -4.68569  -3.25851 
 H                     0.21848  -6.13628  -2.23918 
 H                     1.15954  -4.78298  -2.87231 
 H                    -2.1215   -3.11116  -2.4562 
 H                    -2.96459  -4.65832  -2.54631 
 C                    -0.55067  -3.59072  -4.18918 
 H                     0.23702  -3.93912  -4.84894 
 H                    -0.19092  -2.74819  -3.60496 
 H                    -1.41956  -3.29244  -4.77068 
 C                    -1.48832  -5.86965  -4.03146 
 C                    -0.63969  -6.43617  -5.15815 
 H                    -2.43488  -5.52709  -4.44643 
 H                    -1.70453  -6.63103  -3.28204 
 C                     0.70379  -7.06996  -4.80772 
 H                    -0.5104   -5.69187  -5.94615 
 H                    -1.27615  -7.20598  -5.60212 
 C                     1.29289  -7.81708  -5.99755 
 H                     0.57712  -7.75976  -3.96906 
 H                     1.41573  -6.30869  -4.48304 
 H                     0.63383  -8.62436  -6.31742 
 H                     2.25768  -8.25266  -5.7455 
 H                     1.43973  -7.14886  -6.84684 
 
 ITRead=  0  0  0  0  0  0  0  0  0  0  0  0  0  0  0  0  0  0  0  0
 ITRead=  0  0  0  0  0  0  0  0  0  0
 MicOpt= -1 -1 -1 -1 -1 -1 -1 -1 -1 -1 -1 -1 -1 -1 -1 -1 -1 -1 -1 -1
 MicOpt= -1 -1 -1 -1 -1 -1 -1 -1 -1 -1
 NAtoms=     30 NQM=       30 NQMF=       0 NMMI=      0 NMMIF=      0
                NMic=       0 NMicF=      0.
                    Isotopes and Nuclear Properties:
 (Nuclear quadrupole moments (NQMom) in fm**2, nuclear magnetic moments (NMagM)
  in nuclear magnetons)

  Atom         1           2           3           4           5           6           7           8           9          10
 IAtWgt=          12          12          12           1           1          12           1           1          14           1
 AtmWgt=  12.0000000  12.0000000  12.0000000   1.0078250   1.0078250  12.0000000   1.0078250   1.0078250  14.0030740   1.0078250
 NucSpn=           0           0           0           1           1           0           1           1           2           1
 AtZEff=  -0.0000000  -0.0000000  -0.0000000  -0.0000000  -0.0000000  -0.0000000  -0.0000000  -0.0000000  -0.0000000  -0.0000000
 NQMom=    0.0000000   0.0000000   0.0000000   0.0000000   0.0000000   0.0000000   0.0000000   0.0000000   2.0440000   0.0000000
 NMagM=    0.0000000   0.0000000   0.0000000   2.7928460   2.7928460   0.0000000   2.7928460   2.7928460   0.4037610   2.7928460
 AtZNuc=   6.0000000   6.0000000   6.0000000   1.0000000   1.0000000   6.0000000   1.0000000   1.0000000   7.0000000   1.0000000

  Atom        11          12          13          14          15          16          17          18          19          20
 IAtWgt=           1           1           1          12           1           1           1          12          12           1
 AtmWgt=   1.0078250   1.0078250   1.0078250  12.0000000   1.0078250   1.0078250   1.0078250  12.0000000  12.0000000   1.0078250
 NucSpn=           1           1           1           0           1           1           1           0           0           1
 AtZEff=  -0.0000000  -0.0000000  -0.0000000  -0.0000000  -0.0000000  -0.0000000  -0.0000000  -0.0000000  -0.0000000  -0.0000000
 NQMom=    0.0000000   0.0000000   0.0000000   0.0000000   0.0000000   0.0000000   0.0000000   0.0000000   0.0000000   0.0000000
 NMagM=    2.7928460   2.7928460   2.7928460   0.0000000   2.7928460   2.7928460   2.7928460   0.0000000   0.0000000   2.7928460
 AtZNuc=   1.0000000   1.0000000   1.0000000   6.0000000   1.0000000   1.0000000   1.0000000   6.0000000   6.0000000   1.0000000

  Atom        21          22          23          24          25          26          27          28          29          30
 IAtWgt=           1          12           1           1          12           1           1           1           1           1
 AtmWgt=   1.0078250  12.0000000   1.0078250   1.0078250  12.0000000   1.0078250   1.0078250   1.0078250   1.0078250   1.0078250
 NucSpn=           1           0           1           1           0           1           1           1           1           1
 AtZEff=  -0.0000000  -0.0000000  -0.0000000  -0.0000000  -0.0000000  -0.0000000  -0.0000000  -0.0000000  -0.0000000  -0.0000000
 NQMom=    0.0000000   0.0000000   0.0000000   0.0000000   0.0000000   0.0000000   0.0000000   0.0000000   0.0000000   0.0000000
 NMagM=    2.7928460   0.0000000   2.7928460   2.7928460   0.0000000   2.7928460   2.7928460   2.7928460   2.7928460   2.7928460
 AtZNuc=   1.0000000   6.0000000   1.0000000   1.0000000   6.0000000   1.0000000   1.0000000   1.0000000   1.0000000   1.0000000
 Leave Link  101 at Mon Oct 31 15:29:16 2022, MaxMem=  8589934592 cpu:               1.4 elap:               0.1
 (Enter /usr/local/gaussian/g16a03/g16/l202.exe)
                          Input orientation:                          
 ---------------------------------------------------------------------
 Center     Atomic      Atomic             Coordinates (Angstroms)
 Number     Number       Type             X           Y           Z
 ---------------------------------------------------------------------
      1          6           0       -2.023100   -4.181370   -2.295280
      2          6           0       -1.517020   -4.484350   -0.896750
      3          6           0       -0.007880   -4.350610   -1.052710
      4          1           0       -1.783590   -5.498310   -0.597800
      5          1           0       -1.941130   -3.798110   -0.168910
      6          6           0        0.238680   -5.058100   -2.369770
      7          1           0        0.554270   -4.814530   -0.246800
      8          1           0        0.288520   -3.302310   -1.106630
      9          7           0       -0.941450   -4.685690   -3.258510
     10          1           0        0.218480   -6.136280   -2.239180
     11          1           0        1.159540   -4.782980   -2.872310
     12          1           0       -2.121500   -3.111160   -2.456200
     13          1           0       -2.964590   -4.658320   -2.546310
     14          6           0       -0.550670   -3.590720   -4.189180
     15          1           0        0.237020   -3.939120   -4.848940
     16          1           0       -0.190920   -2.748190   -3.604960
     17          1           0       -1.419560   -3.292440   -4.770680
     18          6           0       -1.488320   -5.869650   -4.031460
     19          6           0       -0.639690   -6.436170   -5.158150
     20          1           0       -2.434880   -5.527090   -4.446430
     21          1           0       -1.704530   -6.631030   -3.282040
     22          6           0        0.703790   -7.069960   -4.807720
     23          1           0       -0.510400   -5.691870   -5.946150
     24          1           0       -1.276150   -7.205980   -5.602120
     25          6           0        1.292890   -7.817080   -5.997550
     26          1           0        0.577120   -7.759760   -3.969060
     27          1           0        1.415730   -6.308690   -4.483040
     28          1           0        0.633830   -8.624360   -6.317420
     29          1           0        2.257680   -8.252660   -5.745500
     30          1           0        1.439730   -7.148860   -6.846840
 ---------------------------------------------------------------------
                    Distance matrix (angstroms):
                    1          2          3          4          5
     1  C    0.000000
     2  C    1.517827   0.000000
     3  C    2.373549   1.523061   0.000000
     4  H    2.161743   1.090204   2.162708   0.000000
     5  H    2.162188   1.086529   2.196318   1.760524   0.000000
     6  C    2.426902   2.362511   1.515249   2.724562   3.344089
     7  H    3.352611   2.195836   1.086612   2.460964   2.695589
     8  H    2.743943   2.168235   1.090731   3.061856   2.469104
     9  N    1.533661   2.439207   2.418550   2.906704   3.366420
    10  H    2.974811   2.746443   2.155822   2.666349   3.796969
    11  H    3.289999   3.340058   2.204713   3.787758   4.229952
    12  H    1.086705   2.164008   2.823723   3.044063   2.395022
    13  H    1.084851   2.201539   3.326809   2.428381   2.727538
    14  C    2.470582   3.545772   3.272537   4.249353   4.258986
    15  H    3.418773   4.358181   3.826312   4.958440   5.164001
    16  H    2.669485   3.479539   3.019145   4.375245   3.996499
    17  H    2.698530   4.054316   4.115321   4.734058   4.658758
    18  C    2.480040   3.427286   3.656793   3.466280   4.406314
    19  C    3.897944   4.768526   4.647944   4.794255   5.791858
    20  H    2.570597   3.811824   4.334947   3.903455   4.640080
    21  H    2.660078   3.214499   3.612319   2.914524   4.215803
    22  C    4.700238   5.187780   4.690569   5.136202   6.262520
    23  H    4.230688   5.288462   5.098751   5.501211   6.245784
    24  H    4.543280   5.441121   5.518947   5.311954   6.447910
    25  C    6.158001   6.709757   6.177367   6.633153   7.783576
    26  H    4.729435   4.955080   4.524337   4.696009   6.039652
    27  H    4.597536   4.979028   4.198560   5.097789   6.015251
    28  H    6.555688   7.151888   6.811307   6.951990   8.229659
    29  H    6.841381   7.208252   6.510072   7.100502   8.280784
    30  H    6.443127   7.158600   6.595280   7.222507   8.200761
                    6          7          8          9         10
     6  C    0.000000
     7  H    2.160075   0.000000
     8  H    2.163517   1.759756   0.000000
     9  N    1.523566   3.365141   2.838513   0.000000
    10  H    1.086248   2.414406   3.052697   2.118651   0.000000
    11  H    1.084537   2.694559   2.463470   2.138405   1.765749
    12  H    3.060800   3.865574   2.768768   2.124939   3.830660
    13  H    3.232944   4.206486   3.807120   2.145011   3.522872
    14  C    2.467089   4.273285   3.207730   1.489233   3.297570
    15  H    2.720001   4.695390   3.796454   2.115568   3.411554
    16  H    2.654418   4.012768   2.603568   2.106473   3.675883
    17  H    3.410525   5.165100   4.042635   2.111017   4.144767
    18  C    2.530288   4.428217   4.278204   1.516008   2.489282
    19  C    3.231977   5.308165   5.205523   2.600744   3.057250
    20  H    3.417659   5.203811   4.849827   2.085531   3.504766
    21  H    2.661280   4.196967   4.448037   2.089783   2.242833
    22  C    3.194919   5.090316   5.297707   3.285059   2.775731
    23  H    3.708541   5.863944   5.456118   2.902001   3.803997
    24  H    4.166075   6.144015   6.155994   3.457802   3.832433
    25  C    4.678046   6.529318   6.731494   4.722311   4.254972
    26  H    3.157727   4.746591   5.305248   3.501549   2.399332
    27  H    2.723111   4.573878   4.659299   3.112860   2.549125
    28  H    5.334632   7.167535   7.456258   5.229872   4.795321
    29  H    5.067260   6.705076   7.064182   5.398410   4.575115
    30  H    5.085072   7.056463   7.005087   4.961183   4.873120
                   11         12         13         14         15
    11  H    0.000000
    12  H    3.705854   0.000000
    13  H    4.138872   1.764263   0.000000
    14  C    2.465857   2.387615   3.108987   0.000000
    15  H    2.338848   3.460251   4.008698   1.084952   0.000000
    16  H    2.549684   2.275640   3.530238   1.086550   1.774523
    17  H    3.532319   2.425366   3.033244   1.087236   1.780050
    18  C    3.087984   3.239078   2.419166   2.469329   2.715146
    19  C    3.345942   4.533430   3.922706   3.007227   2.664487
    20  H    3.993921   3.145781   2.155414   2.714029   3.134121
    21  H    3.433084   3.639418   2.453698   3.376060   3.670309
    22  C    3.030478   5.402222   4.938319   3.749850   3.165712
    23  H    3.614315   4.629844   4.318586   2.739233   2.198781
    24  H    4.388095   5.232493   4.321964   3.948775   3.678225
    25  C    4.357829   6.807709   6.325738   4.952881   4.180041
    26  H    3.225414   5.583975   4.918014   4.324495   3.935371
    27  H    2.233355   5.181146   5.065752   3.367558   2.671723
    28  H    5.186652   7.272980   6.549761   5.591956   4.925989
    29  H    4.636789   7.512106   7.101141   5.660622   4.847011
    30  H    4.633873   6.947165   6.640435   4.866745   3.967436
                   16         17         18         19         20
    16  H    0.000000
    17  H    1.778951   0.000000
    18  C    3.407149   2.682011   0.000000
    19  C    4.026784   3.262111   1.520049   0.000000
    20  H    3.669566   2.475818   1.088817   2.134404   0.000000
    21  H    4.179921   3.666530   1.089989   2.166020   1.762923
    22  C    4.574367   4.333549   2.616996   1.526247   3.515996
    23  H    3.774717   2.822333   2.157306   1.091624   2.445391
    24  H    5.003825   4.003455   2.073106   1.093068   2.344557
    25  C    5.798261   5.416176   3.923407   2.519200   4.641799
    26  H    5.083138   4.958455   2.800438   2.155563   3.779529
    27  H    4.003687   4.149623   2.971563   2.167205   3.929305
    28  H    6.524341   5.919306   4.161437   2.784589   4.744541
    29  H    6.393492   6.251092   4.759116   3.469779   5.580003
    30  H    5.703920   5.230483   4.258664   2.771929   4.837841
                   21         22         23         24         25
    21  H    0.000000
    22  C    2.884504   0.000000
    23  H    3.066831   2.160882   0.000000
    24  H    2.428343   2.137694   1.731259   0.000000
    25  C    4.214883   1.523457   2.787654   2.670164   0.000000
    26  H    2.636656   1.093261   3.060679   2.531436   2.151833
    27  H    3.358917   1.091699   2.496224   3.050195   2.141044
    28  H    4.319123   2.168006   3.169637   2.484246   1.090127
    29  H    4.939375   2.166284   3.776264   3.688367   1.088154
    30  H    4.781456   2.169296   2.595587   2.988075   1.090584
                   26         27         28         29         30
    26  H    0.000000
    27  H    1.753011   0.000000
    28  H    2.503107   3.055920   0.000000
    29  H    2.494588   2.466111   1.761290   0.000000
    30  H    3.065765   2.508787   1.762629   1.760786   0.000000
 Stoichiometry    C9H20N(1+)
 Framework group  C1[X(C9H20N)]
 Deg. of freedom    84
 Full point group                 C1      NOp   1
 Largest Abelian subgroup         C1      NOp   1
 Largest concise Abelian subgroup C1      NOp   1
                         Standard orientation:                         
 ---------------------------------------------------------------------
 Center     Atomic      Atomic             Coordinates (Angstroms)
 Number     Number       Type             X           Y           Z
 ---------------------------------------------------------------------
      1          6           0        2.068148   -0.836663   -0.439403
      2          6           0        2.764771    0.478088   -0.739315
      3          6           0        2.224295    1.396812    0.348594
      4          1           0        2.488263    0.848413   -1.726709
      5          1           0        3.845029    0.364149   -0.714722
      6          6           0        0.752388    1.037353    0.364768
      7          1           0        2.368087    2.452612    0.135668
      8          1           0        2.693086    1.182873    1.309925
      9          7           0        0.699480   -0.469681    0.147274
     10          1           0        0.231460    1.503279   -0.466785
     11          1           0        0.231646    1.279626    1.284742
     12          1           0        2.601338   -1.401484    0.320605
     13          1           0        1.918126   -1.474004   -1.304384
     14          6           0        0.511614   -1.164642    1.450942
     15          1           0       -0.443141   -0.879203    1.879999
     16          1           0        1.314875   -0.871554    2.121361
     17          1           0        0.540819   -2.239135    1.287559
     18          6           0       -0.379821   -0.881614   -0.834408
     19          6           0       -1.828647   -0.754423   -0.392509
     20          1           0       -0.175222   -1.926590   -1.061755
     21          1           0       -0.191553   -0.297435   -1.735167
     22          6           0       -2.382049    0.639422   -0.109008
     23          1           0       -2.026607   -1.416786    0.452316
     24          1           0       -2.393385   -1.184638   -1.223644
     25          6           0       -3.896189    0.612867    0.057110
     26          1           0       -2.115685    1.313982   -0.927078
     27          1           0       -1.936118    1.053842    0.797198
     28          1           0       -4.382792    0.255715   -0.850656
     29          1           0       -4.281971    1.606786    0.274771
     30          1           0       -4.189676   -0.045886    0.875208
 ---------------------------------------------------------------------
 Rotational constants (GHZ):           2.4796908           0.7142451           0.6647787
 Leave Link  202 at Mon Oct 31 15:29:16 2022, MaxMem=  8589934592 cpu:               0.3 elap:               0.0
 (Enter /usr/local/gaussian/g16a03/g16/l301.exe)
 General basis read from cards:  (5D, 7F)
 Centers:       4      5      7      8     10     11     12     13     15     16
 Centers:      17     20     21     23     24     26     27     28     29     30
 S 4 1.00
     Exponent=  3.3685014000D+01 Coefficients=  6.0680000000D-03
     Exponent=  5.0947880000D+00 Coefficients=  4.5316000000D-02
     Exponent=  1.1587860000D+00 Coefficients=  2.0284600000D-01
     Exponent=  3.2584000000D-01 Coefficients=  5.0370900000D-01
 S 1 1.00
     Exponent=  1.0274100000D-01 Coefficients=  1.0000000000D+00
 S 1 1.00
     Exponent=  3.2400000000D-02 Coefficients=  1.0000000000D+00
 P 2 1.00
     Exponent=  1.1588000000D+00 Coefficients=  1.8844000000D-01
     Exponent=  3.2580000000D-01 Coefficients=  8.8242000000D-01
 P 2 1.00
     Exponent=  1.0270000000D-01 Coefficients=  1.1780000000D-01
     Exponent=  3.2400000000D-02 Coefficients=  4.2000000000D-03
 ****
 Centers:       1      2      3      6     14     18     19     22     25
 S 5 1.00
     Exponent=  5.2406353000D+03 Coefficients=  9.3700000000D-04
     Exponent=  7.8220480000D+02 Coefficients=  7.2280000000D-03
     Exponent=  1.7835083000D+02 Coefficients=  3.6344000000D-02
     Exponent=  5.0815942000D+01 Coefficients=  1.3060000000D-01
     Exponent=  1.6823562000D+01 Coefficients=  3.1893100000D-01
 S 2 1.00
     Exponent=  6.1757760000D+00 Coefficients=  4.3874200000D-01
     Exponent=  2.4180490000D+00 Coefficients=  2.1497400000D-01
 S 1 1.00
     Exponent=  5.1190000000D-01 Coefficients=  1.0000000000D+00
 S 1 1.00
     Exponent=  1.5659000000D-01 Coefficients=  1.0000000000D+00
 S 1 1.00
     Exponent=  4.7900000000D-02 Coefficients=  1.0000000000D+00
 P 4 1.00
     Exponent=  1.8841800000D+01 Coefficients=  1.3887000000D-02
     Exponent=  4.1592400000D+00 Coefficients=  8.6279000000D-02
     Exponent=  1.2067100000D+00 Coefficients=  2.8874400000D-01
     Exponent=  3.8554000000D-01 Coefficients=  4.9941100000D-01
 P 1 1.00
     Exponent=  1.2194000000D-01 Coefficients=  1.0000000000D+00
 P 1 1.00
     Exponent=  3.8568000000D-02 Coefficients=  1.0000000000D+00
 D 2 1.00
     Exponent=  1.2067100000D+00 Coefficients=  2.6285200000D-01
     Exponent=  3.8554000000D-01 Coefficients=  8.0430000000D-01
 D 2 1.00
     Exponent=  1.2194000000D-01 Coefficients=  6.5350000000D-01
     Exponent=  3.8658000000D-02 Coefficients=  8.6360000000D-01
 ****
 Centers:       9
 S 5 1.00
     Exponent=  8.1040716000D+03 Coefficients=  8.0200000000D-04
     Exponent=  1.2160215000D+03 Coefficients=  6.1740000000D-03
     Exponent=  2.7723428000D+02 Coefficients=  3.1233000000D-02
     Exponent=  7.6904023000D+01 Coefficients=  1.1519800000D-01
     Exponent=  2.5874419000D+01 Coefficients=  2.9695100000D-01
 S 2 1.00
     Exponent=  9.3467670000D+00 Coefficients=  4.4734900000D-01
     Exponent=  3.5797940000D+00 Coefficients=  2.4500300000D-01
 S 1 1.00
     Exponent=  7.3961000000D-01 Coefficients=  1.0000000000D+00
 S 1 1.00
     Exponent=  2.2261700000D-01 Coefficients=  1.0000000000D+00
 S 1 1.00
     Exponent=  6.7006000000D-02 Coefficients=  1.0000000000D+00
 P 4 1.00
     Exponent=  2.6868987000D+01 Coefficients=  1.4478000000D-02
     Exponent=  5.9912270000D+00 Coefficients=  9.1156000000D-02
     Exponent=  1.7508420000D+00 Coefficients=  2.9742000000D-01
     Exponent=  5.6051100000D-01 Coefficients=  4.9379600000D-01
 P 1 1.00
     Exponent=  1.7594800000D-01 Coefficients=  1.0000000000D+00
 P 1 1.00
     Exponent=  5.5231000000D-02 Coefficients=  1.0000000000D+00
 D 2 1.00
     Exponent=  1.7508420000D+00 Coefficients=  2.2477400000D-01
     Exponent=  5.6051100000D-01 Coefficients=  6.5956200000D-01
 D 2 1.00
     Exponent=  1.7594800000D-01 Coefficients=  8.7135500000D-01
     Exponent=  5.5231000000D-02 Coefficients=  7.0421700000D-01
 ****
 Ernie: Thresh=  0.10000D-02 Tol=  0.10000D-05 Strict=F.
 The following finite field(s) will be applied:
 An electric field of              0.0000  0.0000  0.0008
 In input orientation:  5.01791368D-04  5.80051955D-04 -2.27475610D-04
 There are   440 symmetry adapted cartesian basis functions of A   symmetry.
 There are   420 symmetry adapted basis functions of A   symmetry.
   420 basis functions,   880 primitive gaussians,   440 cartesian basis functions
    40 alpha electrons       40 beta electrons
       nuclear repulsion energy       604.8043466459 Hartrees.
 IExCor= 4336 DFT=T Ex+Corr=M062X ExCW=0 ScaHFX=  0.540000
 ScaDFX=  1.000000  1.000000  1.000000  1.000000 ScalE2=  1.000000  1.000000
 IRadAn=      5 IRanWt=     -1 IRanGd=            0 ICorTp=0 IEmpDi=  4
 NAtoms=   30 NActive=   30 NUniq=   30 SFac= 1.00D+00 NAtFMM=   60 NAOKFM=F Big=F
 Integral buffers will be    131072 words long.
 Raffenetti 2 integral format.
 Two-electron integral symmetry is turned on.
 Leave Link  301 at Mon Oct 31 15:29:16 2022, MaxMem=  8589934592 cpu:               1.2 elap:               0.1
 (Enter /usr/local/gaussian/g16a03/g16/l302.exe)
 NPDir=0 NMtPBC=     1 NCelOv=     1 NCel=       1 NClECP=     1 NCelD=      1
         NCelK=      1 NCelE2=     1 NClLst=     1 CellRange=     0.0.
 One-electron integrals computed using PRISM.
 One-electron integral symmetry used in STVInt
 NBasis=   420 RedAO= T EigKep=  2.49D-06  NBF=   420
 NBsUse=   420 1.00D-06 EigRej= -1.00D+00 NBFU=   420
 Precomputing XC quadrature grid using
 IXCGrd= 4 IRadAn=           5 IRanWt=          -1 IRanGd=           0 AccXCQ= 0.00D+00.
 Generated NRdTot=       0 NPtTot=           0 NUsed=           0 NTot=          32
 NSgBfM=   438   438   438   438   438 MxSgAt=    30 MxSgA2=    30.
 Leave Link  302 at Mon Oct 31 15:29:17 2022, MaxMem=  8589934592 cpu:               5.7 elap:               0.4
 (Enter /usr/local/gaussian/g16a03/g16/l303.exe)
 DipDrv:  MaxL=1.
 The nuclear repulsion energy is now       604.8043466459 hartrees.
 Leave Link  303 at Mon Oct 31 15:29:17 2022, MaxMem=  8589934592 cpu:               2.1 elap:               0.2
 (Enter /usr/local/gaussian/g16a03/g16/l401.exe)
 ExpMin= 3.24D-02 ExpMax= 8.10D+03 ExpMxC= 1.22D+03 IAcc=3 IRadAn=         5 AccDes= 0.00D+00
 Harris functional with IExCor= 1009 and IRadAn=       5 diagonalized for initial guess.
 HarFok:  IExCor= 1009 AccDes= 0.00D+00 IRadAn=         5 IDoV= 1 UseB2=F ITyADJ=14
 ICtDFT=  3500011 ScaDFX=  1.000000  1.000000  1.000000  1.000000
 FoFCou: FMM=F IPFlag=           0 FMFlag=      100000 FMFlg1=           0
         NFxFlg=           0 DoJE=T BraDBF=F KetDBF=T FulRan=T
         wScrn=  0.000000 ICntrl=       500 IOpCl=  0 I1Cent=   200000004 NGrid=           0
         NMat0=    1 NMatS0=      1 NMatT0=    0 NMatD0=    1 NMtDS0=    0 NMtDT0=    0
 Petite list used in FoFCou.
 Harris En= -409.286401432407    
 JPrj=0 DoOrth=F DoCkMO=F.
 Leave Link  401 at Mon Oct 31 15:29:19 2022, MaxMem=  8589934592 cpu:              25.7 elap:               1.6
 (Enter /usr/local/gaussian/g16a03/g16/l502.exe)
 Integral symmetry usage will be decided dynamically.
 Closed shell SCF:
 Using DIIS extrapolation, IDIIS=  1040.
 NGot=  8589934592 LenX=  8589535990 LenY=  8589341949
 Requested convergence on RMS density matrix=1.00D-08 within 128 cycles.
 Requested convergence on MAX density matrix=1.00D-06.
 Requested convergence on             energy=1.00D-06.
 No special actions if energy rises.
 Fock matrices will be formed incrementally for  20 cycles.

 Cycle   1  Pass 1  IDiag  1:
 FoFJK:  IHMeth= 1 ICntrl=       0 DoSepK=F KAlg= 0 I1Cent=           0 FoldK=F
 IRaf= 990000000 NMat=       1 IRICut=       1 DoRegI=T DoRafI=F ISym2E= 0 IDoP0=0 IntGTp=1.
 FoFCou: FMM=F IPFlag=           0 FMFlag=      100000 FMFlg1=           0
         NFxFlg=           0 DoJE=F BraDBF=F KetDBF=F FulRan=T
         wScrn=  0.000000 ICntrl=         0 IOpCl=  0 I1Cent=           0 NGrid=           0
         NMat0=    1 NMatS0=      1 NMatT0=    0 NMatD0=    1 NMtDS0=    0 NMtDT0=    0
 Symmetry not used in FoFCou.
 E= -409.085256812506    
 DIIS: error= 1.69D-02 at cycle   1 NSaved=   1.
 NSaved= 1 IEnMin= 1 EnMin= -409.085256812506     IErMin= 1 ErrMin= 1.69D-02
 ErrMax= 1.69D-02  0.00D+00 EMaxC= 1.00D-01 BMatC= 3.48D-01 BMatP= 3.48D-01
 IDIUse=3 WtCom= 8.31D-01 WtEn= 1.69D-01
 Coeff-Com:  0.100D+01
 Coeff-En:   0.100D+01
 Coeff:      0.100D+01
 Gap=     0.406 Goal=   None    Shift=    0.000
 GapD=    0.406 DampG=2.000 DampE=0.500 DampFc=1.0000 IDamp=-1.
 RMSDP=8.49D-02 MaxDP=4.72D+00              OVMax= 1.48D-01

 Cycle   2  Pass 1  IDiag  1:
 RMSU=  2.47D-02    CP:  5.95D-01
 E= -409.153820605858     Delta-E=       -0.068563793352 Rises=F Damp=F
 DIIS: error= 1.37D-02 at cycle   2 NSaved=   2.
 NSaved= 2 IEnMin= 2 EnMin= -409.153820605858     IErMin= 2 ErrMin= 1.37D-02
 ErrMax= 1.37D-02  0.00D+00 EMaxC= 1.00D-01 BMatC= 2.68D-01 BMatP= 3.48D-01
 IDIUse=3 WtCom= 8.63D-01 WtEn= 1.37D-01
 Coeff-Com:  0.464D+00 0.536D+00
 Coeff-En:   0.432D+00 0.568D+00
 Coeff:      0.460D+00 0.540D+00
 Gap=     0.413 Goal=   None    Shift=    0.000
 RMSDP=2.53D-02 MaxDP=1.51D+00 DE=-6.86D-02 OVMax= 7.29D-02

 Cycle   3  Pass 1  IDiag  1:
 RMSU=  9.25D-03    CP:  7.07D-01  7.12D-01
 E= -409.396522245301     Delta-E=       -0.242701639443 Rises=F Damp=F
 DIIS: error= 3.58D-03 at cycle   3 NSaved=   3.
 NSaved= 3 IEnMin= 3 EnMin= -409.396522245301     IErMin= 3 ErrMin= 3.58D-03
 ErrMax= 3.58D-03  0.00D+00 EMaxC= 1.00D-01 BMatC= 8.16D-03 BMatP= 2.68D-01
 IDIUse=3 WtCom= 9.64D-01 WtEn= 3.58D-02
 Coeff-Com:  0.977D-01 0.185D+00 0.718D+00
 Coeff-En:   0.000D+00 0.000D+00 0.100D+01
 Coeff:      0.942D-01 0.178D+00 0.728D+00
 Gap=     0.396 Goal=   None    Shift=    0.000
 RMSDP=4.15D-03 MaxDP=3.83D-01 DE=-2.43D-01 OVMax= 1.86D-02

 Cycle   4  Pass 1  IDiag  1:
 RMSU=  2.21D-03    CP:  7.24D-01  7.43D-01  9.60D-01
 E= -409.401794684333     Delta-E=       -0.005272439032 Rises=F Damp=F
 DIIS: error= 1.24D-03 at cycle   4 NSaved=   4.
 NSaved= 4 IEnMin= 4 EnMin= -409.401794684333     IErMin= 4 ErrMin= 1.24D-03
 ErrMax= 1.24D-03  0.00D+00 EMaxC= 1.00D-01 BMatC= 1.63D-03 BMatP= 8.16D-03
 IDIUse=3 WtCom= 9.88D-01 WtEn= 1.24D-02
 Coeff-Com:  0.664D-02 0.380D-01 0.358D+00 0.598D+00
 Coeff-En:   0.000D+00 0.000D+00 0.127D+00 0.873D+00
 Coeff:      0.656D-02 0.375D-01 0.355D+00 0.601D+00
 Gap=     0.393 Goal=   None    Shift=    0.000
 RMSDP=1.11D-03 MaxDP=4.45D-02 DE=-5.27D-03 OVMax= 6.19D-03

 Cycle   5  Pass 1  IDiag  1:
 RMSU=  1.09D-03    CP:  7.24D-01  7.50D-01  9.64D-01  9.98D-01
 E= -409.403194258458     Delta-E=       -0.001399574125 Rises=F Damp=F
 DIIS: error= 1.64D-04 at cycle   5 NSaved=   5.
 NSaved= 5 IEnMin= 5 EnMin= -409.403194258458     IErMin= 5 ErrMin= 1.64D-04
 ErrMax= 1.64D-04  0.00D+00 EMaxC= 1.00D-01 BMatC= 3.41D-05 BMatP= 1.63D-03
 IDIUse=3 WtCom= 9.98D-01 WtEn= 1.64D-03
 Coeff-Com: -0.254D-02 0.232D-02 0.747D-01 0.197D+00 0.729D+00
 Coeff-En:   0.000D+00 0.000D+00 0.000D+00 0.000D+00 0.100D+01
 Coeff:     -0.254D-02 0.231D-02 0.745D-01 0.196D+00 0.729D+00
 Gap=     0.394 Goal=   None    Shift=    0.000
 RMSDP=2.52D-04 MaxDP=3.96D-02 DE=-1.40D-03 OVMax= 1.00D-03

 Cycle   6  Pass 1  IDiag  1:
 RMSU=  1.89D-04    CP:  7.24D-01  7.52D-01  9.75D-01  1.01D+00  9.48D-01
 E= -409.403225824556     Delta-E=       -0.000031566098 Rises=F Damp=F
 DIIS: error= 2.97D-05 at cycle   6 NSaved=   6.
 NSaved= 6 IEnMin= 6 EnMin= -409.403225824556     IErMin= 6 ErrMin= 2.97D-05
 ErrMax= 2.97D-05  0.00D+00 EMaxC= 1.00D-01 BMatC= 2.27D-06 BMatP= 3.41D-05
 IDIUse=1 WtCom= 1.00D+00 WtEn= 0.00D+00
 Coeff-Com: -0.121D-02-0.143D-02 0.760D-02 0.375D-01 0.253D+00 0.705D+00
 Coeff:     -0.121D-02-0.143D-02 0.760D-02 0.375D-01 0.253D+00 0.705D+00
 Gap=     0.394 Goal=   None    Shift=    0.000
 RMSDP=8.50D-05 MaxDP=3.78D-03 DE=-3.16D-05 OVMax= 2.53D-04

 Cycle   7  Pass 1  IDiag  1:
 RMSU=  7.74D-05    CP:  7.24D-01  7.53D-01  9.76D-01  1.02D+00  9.62D-01
                    CP:  9.53D-01
 E= -409.403227865384     Delta-E=       -0.000002040828 Rises=F Damp=F
 DIIS: error= 9.59D-06 at cycle   7 NSaved=   7.
 NSaved= 7 IEnMin= 7 EnMin= -409.403227865384     IErMin= 7 ErrMin= 9.59D-06
 ErrMax= 9.59D-06  0.00D+00 EMaxC= 1.00D-01 BMatC= 1.79D-07 BMatP= 2.27D-06
 IDIUse=1 WtCom= 1.00D+00 WtEn= 0.00D+00
 Coeff-Com: -0.287D-04-0.802D-03-0.655D-02-0.123D-01-0.707D-02 0.218D+00
 Coeff-Com:  0.809D+00
 Coeff:     -0.287D-04-0.802D-03-0.655D-02-0.123D-01-0.707D-02 0.218D+00
 Coeff:      0.809D+00
 Gap=     0.394 Goal=   None    Shift=    0.000
 RMSDP=3.67D-05 MaxDP=1.75D-03 DE=-2.04D-06 OVMax= 8.37D-05

 Cycle   8  Pass 1  IDiag  1:
 RMSU=  1.98D-05    CP:  7.24D-01  7.53D-01  9.76D-01  1.03D+00  9.84D-01
                    CP:  1.01D+00  1.04D+00
 E= -409.403228065633     Delta-E=       -0.000000200249 Rises=F Damp=F
 DIIS: error= 1.44D-06 at cycle   8 NSaved=   8.
 NSaved= 8 IEnMin= 8 EnMin= -409.403228065633     IErMin= 8 ErrMin= 1.44D-06
 ErrMax= 1.44D-06  0.00D+00 EMaxC= 1.00D-01 BMatC= 3.31D-09 BMatP= 1.79D-07
 IDIUse=1 WtCom= 1.00D+00 WtEn= 0.00D+00
 Coeff-Com:  0.264D-04-0.134D-03-0.153D-02-0.347D-02-0.899D-02 0.153D-01
 Coeff-Com:  0.142D+00 0.857D+00
 Coeff:      0.264D-04-0.134D-03-0.153D-02-0.347D-02-0.899D-02 0.153D-01
 Coeff:      0.142D+00 0.857D+00
 Gap=     0.394 Goal=   None    Shift=    0.000
 RMSDP=5.51D-06 MaxDP=2.61D-04 DE=-2.00D-07 OVMax= 1.48D-05

 Cycle   9  Pass 1  IDiag  1:
 RMSU=  3.90D-06    CP:  7.24D-01  7.53D-01  9.76D-01  1.03D+00  9.86D-01
                    CP:  1.02D+00  1.07D+00  1.01D+00
 E= -409.403228069344     Delta-E=       -0.000000003711 Rises=F Damp=F
 DIIS: error= 5.99D-07 at cycle   9 NSaved=   9.
 NSaved= 9 IEnMin= 9 EnMin= -409.403228069344     IErMin= 9 ErrMin= 5.99D-07
 ErrMax= 5.99D-07  0.00D+00 EMaxC= 1.00D-01 BMatC= 5.42D-10 BMatP= 3.31D-09
 IDIUse=1 WtCom= 1.00D+00 WtEn= 0.00D+00
 Coeff-Com:  0.985D-05 0.304D-05-0.108D-03-0.386D-03-0.265D-02-0.957D-02
 Coeff-Com: -0.666D-02 0.299D+00 0.721D+00
 Coeff:      0.985D-05 0.304D-05-0.108D-03-0.386D-03-0.265D-02-0.957D-02
 Coeff:     -0.666D-02 0.299D+00 0.721D+00
 Gap=     0.394 Goal=   None    Shift=    0.000
 RMSDP=1.49D-06 MaxDP=8.79D-05 DE=-3.71D-09 OVMax= 4.64D-06

 Cycle  10  Pass 1  IDiag  1:
 RMSU=  8.54D-07    CP:  7.24D-01  7.53D-01  9.76D-01  1.03D+00  9.87D-01
                    CP:  1.02D+00  1.08D+00  1.05D+00  8.97D-01
 E= -409.403228069860     Delta-E=       -0.000000000516 Rises=F Damp=F
 DIIS: error= 1.49D-07 at cycle  10 NSaved=  10.
 NSaved=10 IEnMin=10 EnMin= -409.403228069860     IErMin=10 ErrMin= 1.49D-07
 ErrMax= 1.49D-07  0.00D+00 EMaxC= 1.00D-01 BMatC= 4.31D-11 BMatP= 5.42D-10
 IDIUse=1 WtCom= 1.00D+00 WtEn= 0.00D+00
 Coeff-Com:  0.141D-05 0.105D-04 0.736D-04 0.122D-03-0.212D-03-0.438D-02
 Coeff-Com: -0.131D-01 0.424D-01 0.266D+00 0.709D+00
 Coeff:      0.141D-05 0.105D-04 0.736D-04 0.122D-03-0.212D-03-0.438D-02
 Coeff:     -0.131D-01 0.424D-01 0.266D+00 0.709D+00
 Gap=     0.394 Goal=   None    Shift=    0.000
 RMSDP=2.89D-07 MaxDP=1.18D-05 DE=-5.16D-10 OVMax= 1.28D-06

 Cycle  11  Pass 1  IDiag  1:
 RMSU=  2.32D-07    CP:  7.24D-01  7.53D-01  9.76D-01  1.03D+00  9.87D-01
                    CP:  1.02D+00  1.08D+00  1.05D+00  9.19D-01  8.80D-01
 E= -409.403228069924     Delta-E=       -0.000000000064 Rises=F Damp=F
 DIIS: error= 2.52D-08 at cycle  11 NSaved=  11.
 NSaved=11 IEnMin=11 EnMin= -409.403228069924     IErMin=11 ErrMin= 2.52D-08
 ErrMax= 2.52D-08  0.00D+00 EMaxC= 1.00D-01 BMatC= 9.83D-13 BMatP= 4.31D-11
 IDIUse=1 WtCom= 1.00D+00 WtEn= 0.00D+00
 Coeff-Com: -0.239D-07 0.239D-05 0.210D-04 0.413D-04 0.536D-04-0.597D-03
 Coeff-Com: -0.276D-02-0.204D-02 0.349D-01 0.168D+00 0.802D+00
 Coeff:     -0.239D-07 0.239D-05 0.210D-04 0.413D-04 0.536D-04-0.597D-03
 Coeff:     -0.276D-02-0.204D-02 0.349D-01 0.168D+00 0.802D+00
 Gap=     0.394 Goal=   None    Shift=    0.000
 RMSDP=6.78D-08 MaxDP=2.49D-06 DE=-6.36D-11 OVMax= 2.26D-07

 Cycle  12  Pass 1  IDiag  1:
 RMSU=  5.59D-08    CP:  7.24D-01  7.53D-01  9.76D-01  1.03D+00  9.87D-01
                    CP:  1.02D+00  1.08D+00  1.05D+00  9.19D-01  8.97D-01
                    CP:  1.01D+00
 E= -409.403228069905     Delta-E=        0.000000000019 Rises=F Damp=F
 DIIS: error= 7.03D-09 at cycle  12 NSaved=  12.
 NSaved=12 IEnMin=11 EnMin= -409.403228069924     IErMin=12 ErrMin= 7.03D-09
 ErrMax= 7.03D-09  0.00D+00 EMaxC= 1.00D-01 BMatC= 1.06D-13 BMatP= 9.83D-13
 IDIUse=1 WtCom= 1.00D+00 WtEn= 0.00D+00
 Coeff-Com: -0.937D-07-0.339D-07 0.678D-06 0.256D-05 0.274D-04 0.141D-03
 Coeff-Com:  0.122D-03-0.368D-02-0.882D-02-0.300D-02 0.242D+00 0.773D+00
 Coeff:     -0.937D-07-0.339D-07 0.678D-06 0.256D-05 0.274D-04 0.141D-03
 Coeff:      0.122D-03-0.368D-02-0.882D-02-0.300D-02 0.242D+00 0.773D+00
 Gap=     0.394 Goal=   None    Shift=    0.000
 RMSDP=2.04D-08 MaxDP=1.14D-06 DE= 1.91D-11 OVMax= 7.09D-08

 Cycle  13  Pass 1  IDiag  1:
 RMSU=  1.53D-08    CP:  7.24D-01  7.53D-01  9.76D-01  1.03D+00  9.87D-01
                    CP:  1.02D+00  1.08D+00  1.05D+00  9.19D-01  9.02D-01
                    CP:  1.05D+00  9.39D-01
 E= -409.403228069916     Delta-E=       -0.000000000011 Rises=F Damp=F
 DIIS: error= 2.33D-09 at cycle  13 NSaved=  13.
 NSaved=13 IEnMin=11 EnMin= -409.403228069924     IErMin=13 ErrMin= 2.33D-09
 ErrMax= 2.33D-09  0.00D+00 EMaxC= 1.00D-01 BMatC= 1.01D-14 BMatP= 1.06D-13
 IDIUse=1 WtCom= 1.00D+00 WtEn= 0.00D+00
 Coeff-Com: -0.272D-07-0.182D-06-0.125D-05-0.203D-05 0.600D-05 0.996D-04
 Coeff-Com:  0.252D-03-0.123D-02-0.587D-02-0.138D-01 0.263D-01 0.276D+00
 Coeff-Com:  0.718D+00
 Coeff:     -0.272D-07-0.182D-06-0.125D-05-0.203D-05 0.600D-05 0.996D-04
 Coeff:      0.252D-03-0.123D-02-0.587D-02-0.138D-01 0.263D-01 0.276D+00
 Coeff:      0.718D+00
 Gap=     0.394 Goal=   None    Shift=    0.000
 RMSDP=5.04D-09 MaxDP=1.96D-07 DE=-1.14D-11 OVMax= 1.95D-08

 SCF Done:  E(RM062X) =  -409.403228070     A.U. after   13 cycles
            NFock= 13  Conv=0.50D-08     -V/T= 2.0063
 KE= 4.068482967538D+02 PE=-2.142991748324D+03 EE= 7.219358768546D+02
 Leave Link  502 at Mon Oct 31 15:31:45 2022, MaxMem=  8589934592 cpu:            2333.6 elap:             145.9
 (Enter /usr/local/gaussian/g16a03/g16/l801.exe)
 DoSCS=F DFT=T ScalE2(SS,OS)=  1.000000  1.000000
 Range of M.O.s used for correlation:     1   420
 NBasis=   420 NAE=    40 NBE=    40 NFC=     0 NFV=     0
 NROrb=    420 NOA=    40 NOB=    40 NVA=   380 NVB=   380

 **** Warning!!: The largest alpha MO coefficient is  0.89910859D+02

 Leave Link  801 at Mon Oct 31 15:31:45 2022, MaxMem=  8589934592 cpu:               0.4 elap:               0.0
 (Enter /usr/local/gaussian/g16a03/g16/l1002.exe)
 Minotr:  Closed shell wavefunction.
          Direct CPHF calculation.
          Differentiating once with respect to electric field.
                with respect to dipole field.
          Electric field/nuclear overlap derivatives assumed to be zero.
          Requested convergence is 1.0D-08 RMS, and 1.0D-07 maximum.
          Secondary convergence is 1.0D-12 RMS, and 1.0D-12 maximum.
          NewPWx=F KeepS1=T KeepF1=T KeepIn=T MapXYZ=F SortEE=F KeepMc=T.
         9298 words used for storage of precomputed grid.
 Two-electron integral symmetry used by symmetrizing perturbed Fock matrices.
          MDV=    8589934592 using IRadAn=       1.
          Solving linear equations simultaneously, MaxMat=     384.
          There are     3 degrees of freedom in the 1st order CPHF.  IDoFFX=0 NUNeed=     3.
      3 vectors produced by pass  0 Test12= 5.07D-13 3.33D-08 XBig12= 4.80D+01 1.15D+00.
 AX will form     3 AO Fock derivatives at one time.
 FoFJK:  IHMeth= 1 ICntrl=       0 DoSepK=F KAlg= 0 I1Cent=           0 FoldK=F
 IRaf= 980000000 NMat=       3 IRICut=       1 DoRegI=T DoRafI=F ISym2E=-1 IDoP0=0 IntGTp=1.
 FoFCou: FMM=F IPFlag=           0 FMFlag=      100000 FMFlg1=           0
         NFxFlg=           0 DoJE=F BraDBF=F KetDBF=F FulRan=T
         wScrn=  0.000000 ICntrl=         0 IOpCl=  0 I1Cent=           0 NGrid=           0
         NMat0=    3 NMatS0=      3 NMatT0=    0 NMatD0=    3 NMtDS0=    0 NMtDT0=    0
 Petite list used in FoFCou.
      3 vectors produced by pass  1 Test12= 5.07D-13 3.33D-08 XBig12= 4.70D+00 2.03D-01.
      3 vectors produced by pass  2 Test12= 5.07D-13 3.33D-08 XBig12= 5.24D-01 4.58D-02.
      3 vectors produced by pass  3 Test12= 5.07D-13 3.33D-08 XBig12= 5.45D-02 1.70D-02.
      3 vectors produced by pass  4 Test12= 5.07D-13 3.33D-08 XBig12= 7.21D-03 5.78D-03.
      3 vectors produced by pass  5 Test12= 5.07D-13 3.33D-08 XBig12= 1.01D-03 3.64D-03.
      3 vectors produced by pass  6 Test12= 5.07D-13 3.33D-08 XBig12= 9.20D-05 5.36D-04.
      3 vectors produced by pass  7 Test12= 5.07D-13 3.33D-08 XBig12= 1.12D-05 2.49D-04.
      3 vectors produced by pass  8 Test12= 5.07D-13 3.33D-08 XBig12= 6.25D-07 8.23D-05.
      3 vectors produced by pass  9 Test12= 5.07D-13 3.33D-08 XBig12= 5.81D-08 2.39D-05.
      3 vectors produced by pass 10 Test12= 5.07D-13 3.33D-08 XBig12= 8.82D-09 8.58D-06.
      3 vectors produced by pass 11 Test12= 5.07D-13 3.33D-08 XBig12= 5.35D-10 1.81D-06.
      3 vectors produced by pass 12 Test12= 5.07D-13 3.33D-08 XBig12= 2.28D-11 4.32D-07.
      2 vectors produced by pass 13 Test12= 5.07D-13 3.33D-08 XBig12= 7.48D-13 6.46D-08.
 InvSVY:  IOpt=1 It=  1 EMax= 3.55D-15
 Solved reduced A of dimension    41 with     3 vectors.
 FullF1:  Do perturbations      1 to       3.
 SCF Polarizability for W=    0.000000:
                1             2             3 
      1  0.124530D+03
      2  0.807514D+00  0.100874D+03
      3 -0.148527D+01  0.685326D+00  0.947820D+02
 Isotropic polarizability for W=    0.000000      106.73 Bohr**3.
 SCF Static Hyperpolarizability:
 K=  1 block:
                1 
      1  0.403917D+02
 K=  2 block:
                1             2 
      1 -0.880898D+01
      2 -0.672927D+01 -0.110052D+02
 K=  3 block:
                1             2             3 
      1  0.352565D+01
      2 -0.262910D+01 -0.102502D+01
      3 -0.262733D+01 -0.329328D+01  0.235766D+01
 End of Minotr F.D. properties file   721 does not exist.
 End of Minotr F.D. properties file   722 does not exist.
 End of Minotr F.D. properties file   788 does not exist.
 Leave Link 1002 at Mon Oct 31 15:36:45 2022, MaxMem=  8589934592 cpu:            4457.6 elap:             300.2
 (Enter /usr/local/gaussian/g16a03/g16/l601.exe)
 Copying SCF densities to generalized density rwf, IOpCl= 0 IROHF=0.

 **********************************************************************

            Population analysis using the SCF density.

 **********************************************************************

 Orbital symmetries:
       Occupied  (A) (A) (A) (A) (A) (A) (A) (A) (A) (A) (A) (A)
                 (A) (A) (A) (A) (A) (A) (A) (A) (A) (A) (A) (A)
                 (A) (A) (A) (A) (A) (A) (A) (A) (A) (A) (A) (A)
                 (A) (A) (A) (A)
       Virtual   (A) (A) (A) (A) (A) (A) (A) (A) (A) (A) (A) (A)
                 (A) (A) (A) (A) (A) (A) (A) (A) (A) (A) (A) (A)
                 (A) (A) (A) (A) (A) (A) (A) (A) (A) (A) (A) (A)
                 (A) (A) (A) (A) (A) (A) (A) (A) (A) (A) (A) (A)
                 (A) (A) (A) (A) (A) (A) (A) (A) (A) (A) (A) (A)
                 (A) (A) (A) (A) (A) (A) (A) (A) (A) (A) (A) (A)
                 (A) (A) (A) (A) (A) (A) (A) (A) (A) (A) (A) (A)
                 (A) (A) (A) (A) (A) (A) (A) (A) (A) (A) (A) (A)
                 (A) (A) (A) (A) (A) (A) (A) (A) (A) (A) (A) (A)
                 (A) (A) (A) (A) (A) (A) (A) (A) (A) (A) (A) (A)
                 (A) (A) (A) (A) (A) (A) (A) (A) (A) (A) (A) (A)
                 (A) (A) (A) (A) (A) (A) (A) (A) (A) (A) (A) (A)
                 (A) (A) (A) (A) (A) (A) (A) (A) (A) (A) (A) (A)
                 (A) (A) (A) (A) (A) (A) (A) (A) (A) (A) (A) (A)
                 (A) (A) (A) (A) (A) (A) (A) (A) (A) (A) (A) (A)
                 (A) (A) (A) (A) (A) (A) (A) (A) (A) (A) (A) (A)
                 (A) (A) (A) (A) (A) (A) (A) (A) (A) (A) (A) (A)
                 (A) (A) (A) (A) (A) (A) (A) (A) (A) (A) (A) (A)
                 (A) (A) (A) (A) (A) (A) (A) (A) (A) (A) (A) (A)
                 (A) (A) (A) (A) (A) (A) (A) (A) (A) (A) (A) (A)
                 (A) (A) (A) (A) (A) (A) (A) (A) (A) (A) (A) (A)
                 (A) (A) (A) (A) (A) (A) (A) (A) (A) (A) (A) (A)
                 (A) (A) (A) (A) (A) (A) (A) (A) (A) (A) (A) (A)
                 (A) (A) (A) (A) (A) (A) (A) (A) (A) (A) (A) (A)
                 (A) (A) (A) (A) (A) (A) (A) (A) (A) (A) (A) (A)
                 (A) (A) (A) (A) (A) (A) (A) (A) (A) (A) (A) (A)
                 (A) (A) (A) (A) (A) (A) (A) (A) (A) (A) (A) (A)
                 (A) (A) (A) (A) (A) (A) (A) (A) (A) (A) (A) (A)
                 (A) (A) (A) (A) (A) (A) (A) (A) (A) (A) (A) (A)
                 (A) (A) (A) (A) (A) (A) (A) (A) (A) (A) (A) (A)
                 (A) (A) (A) (A) (A) (A) (A) (A) (A) (A) (A) (A)
                 (A) (A) (A) (A) (A) (A) (A) (A)
 The electronic state is 1-A.
 Alpha  occ. eigenvalues --  -15.02604 -10.75543 -10.75387 -10.75302 -10.75281
 Alpha  occ. eigenvalues --  -10.70550 -10.70458 -10.69342 -10.67618 -10.64853
 Alpha  occ. eigenvalues --   -1.28376  -1.08265  -1.04309  -1.01286  -0.98874
 Alpha  occ. eigenvalues --   -0.95287  -0.88197  -0.85088  -0.83816  -0.80776
 Alpha  occ. eigenvalues --   -0.76454  -0.74924  -0.71835  -0.69302  -0.68919
 Alpha  occ. eigenvalues --   -0.66646  -0.65764  -0.63458  -0.62615  -0.61585
 Alpha  occ. eigenvalues --   -0.61562  -0.59163  -0.57930  -0.57566  -0.57285
 Alpha  occ. eigenvalues --   -0.56693  -0.55498  -0.53025  -0.52152  -0.51937
 Alpha virt. eigenvalues --   -0.12530  -0.10961  -0.10735  -0.10457  -0.08649
 Alpha virt. eigenvalues --   -0.08553  -0.08337  -0.08084  -0.07850  -0.06963
 Alpha virt. eigenvalues --   -0.05806  -0.05529  -0.05331  -0.05084  -0.04901
 Alpha virt. eigenvalues --   -0.04765  -0.03789  -0.03393  -0.03026  -0.02824
 Alpha virt. eigenvalues --   -0.02630  -0.02144  -0.01921  -0.01442  -0.01053
 Alpha virt. eigenvalues --   -0.00816  -0.00704  -0.00197   0.00308   0.00356
 Alpha virt. eigenvalues --    0.00495   0.00847   0.01036   0.01251   0.01599
 Alpha virt. eigenvalues --    0.01676   0.01807   0.01911   0.02148   0.02476
 Alpha virt. eigenvalues --    0.02612   0.03310   0.03550   0.03907   0.04200
 Alpha virt. eigenvalues --    0.04339   0.04746   0.05025   0.05315   0.05738
 Alpha virt. eigenvalues --    0.05878   0.06243   0.06541   0.06788   0.06926
 Alpha virt. eigenvalues --    0.07604   0.07776   0.08092   0.08536   0.08700
 Alpha virt. eigenvalues --    0.09232   0.09478   0.09792   0.10193   0.10542
 Alpha virt. eigenvalues --    0.10825   0.11050   0.11738   0.12009   0.12650
 Alpha virt. eigenvalues --    0.12984   0.13132   0.13893   0.14185   0.14615
 Alpha virt. eigenvalues --    0.14750   0.15243   0.15722   0.16125   0.16261
 Alpha virt. eigenvalues --    0.16890   0.16946   0.17677   0.18048   0.18302
 Alpha virt. eigenvalues --    0.18428   0.19111   0.19533   0.19840   0.20036
 Alpha virt. eigenvalues --    0.20524   0.20819   0.21409   0.21622   0.22151
 Alpha virt. eigenvalues --    0.22481   0.22824   0.23054   0.23494   0.23952
 Alpha virt. eigenvalues --    0.24316   0.24406   0.24622   0.25257   0.25582
 Alpha virt. eigenvalues --    0.25937   0.26140   0.26585   0.26989   0.27239
 Alpha virt. eigenvalues --    0.27622   0.27883   0.28314   0.28526   0.28747
 Alpha virt. eigenvalues --    0.29247   0.29504   0.29771   0.30156   0.30645
 Alpha virt. eigenvalues --    0.30894   0.31270   0.31585   0.31949   0.32731
 Alpha virt. eigenvalues --    0.33199   0.33776   0.33880   0.34678   0.34951
 Alpha virt. eigenvalues --    0.35122   0.35613   0.35869   0.36418   0.36550
 Alpha virt. eigenvalues --    0.37020   0.37115   0.37784   0.38022   0.38332
 Alpha virt. eigenvalues --    0.38655   0.39087   0.39532   0.40058   0.40600
 Alpha virt. eigenvalues --    0.40814   0.40987   0.41357   0.41652   0.42054
 Alpha virt. eigenvalues --    0.42235   0.42681   0.43290   0.43930   0.44012
 Alpha virt. eigenvalues --    0.44423   0.44627   0.44977   0.45355   0.45517
 Alpha virt. eigenvalues --    0.46120   0.47007   0.47214   0.47776   0.48395
 Alpha virt. eigenvalues --    0.48726   0.48964   0.49276   0.49769   0.49917
 Alpha virt. eigenvalues --    0.51476   0.51527   0.52221   0.52632   0.53011
 Alpha virt. eigenvalues --    0.53720   0.53801   0.54527   0.54724   0.55510
 Alpha virt. eigenvalues --    0.56169   0.57062   0.57903   0.58830   0.58892
 Alpha virt. eigenvalues --    0.59759   0.60029   0.60741   0.61016   0.61321
 Alpha virt. eigenvalues --    0.61711   0.62539   0.62995   0.63818   0.64226
 Alpha virt. eigenvalues --    0.65148   0.65662   0.66501   0.66818   0.67502
 Alpha virt. eigenvalues --    0.68612   0.69219   0.70520   0.71354   0.72460
 Alpha virt. eigenvalues --    0.72979   0.74521   0.75247   0.76842   0.77395
 Alpha virt. eigenvalues --    0.78245   0.78719   0.79907   0.81230   0.81954
 Alpha virt. eigenvalues --    0.82742   0.83409   0.84587   0.85091   0.86292
 Alpha virt. eigenvalues --    0.86512   0.88143   0.89541   0.90253   0.90477
 Alpha virt. eigenvalues --    0.91876   0.93121   0.93689   0.94439   0.95343
 Alpha virt. eigenvalues --    0.96173   0.97402   0.98334   0.99517   0.99791
 Alpha virt. eigenvalues --    1.00711   1.01243   1.02676   1.03740   1.05161
 Alpha virt. eigenvalues --    1.06206   1.06962   1.07337   1.08284   1.08703
 Alpha virt. eigenvalues --    1.09616   1.10703   1.11910   1.12997   1.15037
 Alpha virt. eigenvalues --    1.15330   1.16251   1.16792   1.18474   1.19455
 Alpha virt. eigenvalues --    1.20177   1.21739   1.24127   1.24799   1.26129
 Alpha virt. eigenvalues --    1.26261   1.28258   1.29020   1.30601   1.30919
 Alpha virt. eigenvalues --    1.32396   1.32846   1.33453   1.34417   1.36256
 Alpha virt. eigenvalues --    1.36466   1.37747   1.39324   1.39768   1.40532
 Alpha virt. eigenvalues --    1.41398   1.42381   1.42981   1.43755   1.45678
 Alpha virt. eigenvalues --    1.46147   1.46861   1.47513   1.48644   1.49791
 Alpha virt. eigenvalues --    1.50538   1.52266   1.52419   1.52882   1.53272
 Alpha virt. eigenvalues --    1.54351   1.55231   1.56621   1.58021   1.59585
 Alpha virt. eigenvalues --    1.60177   1.61481   1.62601   1.63553   1.64957
 Alpha virt. eigenvalues --    1.65782   1.66351   1.68046   1.70067   1.71216
 Alpha virt. eigenvalues --    1.71842   1.72947   1.74144   1.75816   1.76077
 Alpha virt. eigenvalues --    1.77295   1.78012   1.80020   1.81769   1.82215
 Alpha virt. eigenvalues --    1.83245   1.84254   1.85929   1.87479   1.88876
 Alpha virt. eigenvalues --    1.90523   1.91519   1.92888   1.96048   1.96729
 Alpha virt. eigenvalues --    1.97425   1.98832   1.99322   2.00891   2.02840
 Alpha virt. eigenvalues --    2.03231   2.05656   2.06064   2.07862   2.08537
 Alpha virt. eigenvalues --    2.12002   2.13715   2.14368   2.16091   2.16736
 Alpha virt. eigenvalues --    2.17523   2.18090   2.19302   2.20885   2.25603
 Alpha virt. eigenvalues --    2.27329   2.29376   2.31376   2.32952   2.36289
 Alpha virt. eigenvalues --    2.38161   2.39804   2.42793   2.45462   2.47268
 Alpha virt. eigenvalues --    2.49257   2.50404   2.52950   2.54286   2.55387
 Alpha virt. eigenvalues --    2.59773   2.62419   2.66145   2.66330   2.71844
 Alpha virt. eigenvalues --    2.73088   2.75976   2.78955   2.83284   2.89913
 Alpha virt. eigenvalues --   21.87082  21.91162  22.00138  22.04380  22.07257
 Alpha virt. eigenvalues --   22.11335  22.17333  22.20644  22.23984  33.14095
          Condensed to atoms (all electrons):
               1          2          3          4          5          6
     1  C   34.320742 -11.770451   7.803393   0.044530   1.348200 -16.708971
     2  C  -11.770451  30.031296  -5.199146   1.286710  -5.112348   1.925815
     3  C    7.803393  -5.199146  34.693028  -0.503399   0.619920 -17.072994
     4  H    0.044530   1.286710  -0.503399   9.344519  -5.160613   0.794497
     5  H    1.348200  -5.112348   0.619920  -5.160613   7.650821  -0.020531
     6  C  -16.708971   1.925815 -17.072994   0.794497  -0.020531  45.819154
     7  H    0.840002   0.170159  -4.043280  -1.061895   0.589354  -0.060924
     8  H   -0.965244  -0.145632   0.083623   1.286700  -1.150497   2.499605
     9  N   -5.555982   1.643096   0.259041  -0.805977   0.937046  -2.325880
    10  H   -0.941279  -3.538762  -1.822109  -0.453750   0.194509   0.548069
    11  H    1.257090   0.882924  -0.106846  -0.573186   0.297809  -4.431063
    12  H    1.418053   0.858498  -0.878414   1.470972  -1.495279  -2.132302
    13  H    0.627254  -3.311723   1.480307  -1.642010   1.020416  -0.351470
    14  C   -2.794877  -0.705668  -3.767413  -0.654840   0.592673  -1.529964
    15  H    2.437646  -0.501003   0.937698  -0.084706  -0.031412  -1.753737
    16  H   -2.498781   0.162721  -2.971474  -0.004896   0.219584   3.797587
    17  H   -0.257963   0.217422  -0.126661  -0.156445   0.120677   0.387282
    18  C   -0.055615  -3.876325  -3.538184  -0.477379   0.677893  -3.091923
    19  C   -0.388575  -0.660454   1.348196  -0.489687   0.280014  -4.335551
    20  H   -0.074508   0.769628  -0.685246   0.039949   0.001761   0.734909
    21  H    0.139039  -1.814347   0.832395  -1.082001   0.412517  -0.139770
    22  C   -2.206139   0.734296  -3.677646   0.449884  -0.156717   3.138650
    23  H   -0.222082   0.328417  -1.167739  -0.098337   0.040312  -0.842703
    24  H   -0.285776  -0.153090   0.392130   0.057754  -0.015920   1.317158
    25  C   -0.119941  -0.026724  -0.625909   0.024130  -0.007332  -1.750085
    26  H   -0.097598   0.632126  -0.628496   0.172998  -0.026368  -0.239119
    27  H   -0.076288  -0.064649   0.728955  -0.019180   0.010011   1.982873
    28  H   -0.044673  -0.033045  -0.015334  -0.010401   0.000847  -0.252502
    29  H    0.019763  -0.015032  -0.051208   0.000917  -0.000968  -0.250410
    30  H    0.020503   0.029374   0.037041   0.009831  -0.001279   0.465291
               7          8          9         10         11         12
     1  C    0.840002  -0.965244  -5.555982  -0.941279   1.257090   1.418053
     2  C    0.170159  -0.145632   1.643096  -3.538762   0.882924   0.858498
     3  C   -4.043280   0.083623   0.259041  -1.822109  -0.106846  -0.878414
     4  H   -1.061895   1.286700  -0.805977  -0.453750  -0.573186   1.470972
     5  H    0.589354  -1.150497   0.937046   0.194509   0.297809  -1.495279
     6  C   -0.060924   2.499605  -2.325880   0.548069  -4.431063  -2.132302
     7  H    7.966251  -5.278111   0.608030  -2.121879   0.898399   0.142282
     8  H   -5.278111   9.123492   0.215084   2.303123  -1.852435   0.100497
     9  N    0.608030   0.215084  51.299415   0.339651  -0.658542  -1.562701
    10  H   -2.121879   2.303123   0.339651  15.179363  -6.877085  -0.678502
    11  H    0.898399  -1.852435  -0.658542  -6.877085  12.754270  -0.119727
    12  H    0.142282   0.100497  -1.562701  -0.678502  -0.119727  10.974484
    13  H    0.201106  -0.213434  -2.687679   0.172112   0.120947  -5.063346
    14  C    0.915152  -0.960756  -6.975580  -0.892521   1.154764   1.871509
    15  H    0.172060   0.053500  -3.582188  -0.105347  -0.343476   1.152407
    16  H    0.344907  -1.498008  -2.635447  -0.551138   0.862297  -0.705433
    17  H   -0.003305  -0.042819  -4.195870   0.167472   0.221349  -1.099919
    18  C    0.638321  -0.901487  -7.007472   0.986285   0.617935  -1.254033
    19  C    0.116074  -0.123221   6.083471  -1.430472   0.252621  -0.363193
    20  H    0.009854  -0.120914  -4.001190  -0.128207   0.186144   0.305878
    21  H    0.327280  -0.282835  -1.926441   0.487932  -0.390103  -0.447049
    22  C    0.098813  -0.111557  -2.388031   2.413132  -1.489455  -0.258735
    23  H    0.035892  -0.176513  -4.849789   0.050660   0.264948  -0.302375
    24  H   -0.005472   0.026818  -0.176032  -0.018160   0.178798   0.015708
    25  C    0.025271  -0.040639  -2.089800   0.763957  -0.185566  -0.050382
    26  H    0.029050  -0.085577  -1.703955  -1.848397   0.633313   0.028632
    27  H    0.077138  -0.049069   2.077745   0.172546  -1.941666  -0.047822
    28  H   -0.002527   0.004097   0.200484   0.176319  -0.205700  -0.005919
    29  H    0.001262  -0.006666  -0.269229   0.111097   0.067915   0.002348
    30  H    0.003605   0.002733   0.053311  -0.177157   0.160488  -0.001965
              13         14         15         16         17         18
     1  C    0.627254  -2.794877   2.437646  -2.498781  -0.257963  -0.055615
     2  C   -3.311723  -0.705668  -0.501003   0.162721   0.217422  -3.876325
     3  C    1.480307  -3.767413   0.937698  -2.971474  -0.126661  -3.538184
     4  H   -1.642010  -0.654840  -0.084706  -0.004896  -0.156445  -0.477379
     5  H    1.020416   0.592673  -0.031412   0.219584   0.120677   0.677893
     6  C   -0.351470  -1.529964  -1.753737   3.797587   0.387282  -3.091923
     7  H    0.201106   0.915152   0.172060   0.344907  -0.003305   0.638321
     8  H   -0.213434  -0.960756   0.053500  -1.498008  -0.042819  -0.901487
     9  N   -2.687679  -6.975580  -3.582188  -2.635447  -4.195870  -7.007472
    10  H    0.172112  -0.892521  -0.105347  -0.551138   0.167472   0.986285
    11  H    0.120947   1.154764  -0.343476   0.862297   0.221349   0.617935
    12  H   -5.063346   1.871509   1.152407  -0.705433  -1.099919  -1.254033
    13  H    9.458539  -1.289944   0.107647  -0.542241   0.643792   2.589478
    14  C   -1.289944  17.806074  -0.234270  -0.557998   0.591014  -1.544733
    15  H    0.107647  -0.234270  14.431107  -4.984009  -2.674744  -1.875601
    16  H   -0.542241  -0.557998  -4.984009  11.470880  -1.918548   1.042868
    17  H    0.643792   0.591014  -2.674744  -1.918548   9.594664   1.399732
    18  C    2.589478  -1.544733  -1.875601   1.042868   1.399732  36.405639
    19  C    0.211003  -2.583312   0.749899   0.383553  -2.090998 -15.303096
    20  H   -0.856105   0.830263   0.540669   0.336121  -0.042680  -1.951846
    21  H    0.637550   0.300803  -0.227058   0.314356  -0.233094   0.062174
    22  C    0.182592  -0.222590  -0.469717   0.578000   0.980843  -1.894534
    23  H   -0.163323   1.656245  -1.020132   0.713885  -0.285299   2.671569
    24  H    0.154264   0.533277   0.250816   0.011843   0.381574   1.888461
    25  C   -0.061933   0.836037  -0.194499   0.171977   0.136097   0.868917
    26  H    0.010310   1.152200   0.539335   0.041834   0.118952   0.648589
    27  H    0.135579  -0.980458  -1.557261   0.314433  -0.197655  -2.325355
    28  H   -0.005957  -0.019510  -0.120847   0.015913  -0.016161  -0.204783
    29  H   -0.002250   0.029578   0.059048   0.001521   0.009886   0.593881
    30  H   -0.004813  -0.007746   0.161395  -0.041842   0.052203  -0.499298
              19         20         21         22         23         24
     1  C   -0.388575  -0.074508   0.139039  -2.206139  -0.222082  -0.285776
     2  C   -0.660454   0.769628  -1.814347   0.734296   0.328417  -0.153090
     3  C    1.348196  -0.685246   0.832395  -3.677646  -1.167739   0.392130
     4  H   -0.489687   0.039949  -1.082001   0.449884  -0.098337   0.057754
     5  H    0.280014   0.001761   0.412517  -0.156717   0.040312  -0.015920
     6  C   -4.335551   0.734909  -0.139770   3.138650  -0.842703   1.317158
     7  H    0.116074   0.009854   0.327280   0.098813   0.035892  -0.005472
     8  H   -0.123221  -0.120914  -0.282835  -0.111557  -0.176513   0.026818
     9  N    6.083471  -4.001190  -1.926441  -2.388031  -4.849789  -0.176032
    10  H   -1.430472  -0.128207   0.487932   2.413132   0.050660  -0.018160
    11  H    0.252621   0.186144  -0.390103  -1.489455   0.264948   0.178798
    12  H   -0.363193   0.305878  -0.447049  -0.258735  -0.302375   0.015708
    13  H    0.211003  -0.856105   0.637550   0.182592  -0.163323   0.154264
    14  C   -2.583312   0.830263   0.300803  -0.222590   1.656245   0.533277
    15  H    0.749899   0.540669  -0.227058  -0.469717  -1.020132   0.250816
    16  H    0.383553   0.336121   0.314356   0.578000   0.713885   0.011843
    17  H   -2.090998  -0.042680  -0.233094   0.980843  -0.285299   0.381574
    18  C  -15.303096  -1.951846   0.062174  -1.894534   2.671569   1.888461
    19  C   41.028034  -3.006328   1.710480 -13.155802  -1.913876  -5.409710
    20  H   -3.006328  12.384741  -7.012637   3.291911  -0.259969   0.861596
    21  H    1.710480  -7.012637  14.430802  -3.366534   1.368933  -1.444117
    22  C  -13.155802   3.291911  -3.366534  35.915110  -2.132293   0.074933
    23  H   -1.913876  -0.259969   1.368933  -2.132293  14.084070  -6.474795
    24  H   -5.409710   0.861596  -1.444117   0.074933  -6.474795  10.282809
    25  C    1.022314  -0.162920   0.408713 -11.592156   1.531436   0.176670
    26  H    1.767366  -0.093868  -1.291679  -2.876472  -0.296300   0.190994
    27  H   -0.038285   0.199860   0.306514   0.110703  -0.103574  -0.439116
    28  H   -1.514577   0.055831   0.284123   2.148413   0.737686  -1.478865
    29  H    2.087738   0.012756   0.065096  -1.701107   0.118059   0.341441
    30  H   -0.912398  -0.084416  -0.214140   3.549871  -1.187106   0.657099
              25         26         27         28         29         30
     1  C   -0.119941  -0.097598  -0.076288  -0.044673   0.019763   0.020503
     2  C   -0.026724   0.632126  -0.064649  -0.033045  -0.015032   0.029374
     3  C   -0.625909  -0.628496   0.728955  -0.015334  -0.051208   0.037041
     4  H    0.024130   0.172998  -0.019180  -0.010401   0.000917   0.009831
     5  H   -0.007332  -0.026368   0.010011   0.000847  -0.000968  -0.001279
     6  C   -1.750085  -0.239119   1.982873  -0.252502  -0.250410   0.465291
     7  H    0.025271   0.029050   0.077138  -0.002527   0.001262   0.003605
     8  H   -0.040639  -0.085577  -0.049069   0.004097  -0.006666   0.002733
     9  N   -2.089800  -1.703955   2.077745   0.200484  -0.269229   0.053311
    10  H    0.763957  -1.848397   0.172546   0.176319   0.111097  -0.177157
    11  H   -0.185566   0.633313  -1.941666  -0.205700   0.067915   0.160488
    12  H   -0.050382   0.028632  -0.047822  -0.005919   0.002348  -0.001965
    13  H   -0.061933   0.010310   0.135579  -0.005957  -0.002250  -0.004813
    14  C    0.836037   1.152200  -0.980458  -0.019510   0.029578  -0.007746
    15  H   -0.194499   0.539335  -1.557261  -0.120847   0.059048   0.161395
    16  H    0.171977   0.041834   0.314433   0.015913   0.001521  -0.041842
    17  H    0.136097   0.118952  -0.197655  -0.016161   0.009886   0.052203
    18  C    0.868917   0.648589  -2.325355  -0.204783   0.593881  -0.499298
    19  C    1.022314   1.767366  -0.038285  -1.514577   2.087738  -0.912398
    20  H   -0.162920  -0.093868   0.199860   0.055831   0.012756  -0.084416
    21  H    0.408713  -1.291679   0.306514   0.284123   0.065096  -0.214140
    22  C  -11.592156  -2.876472   0.110703   2.148413  -1.701107   3.549871
    23  H    1.531436  -0.296300  -0.103574   0.737686   0.118059  -1.187106
    24  H    0.176670   0.190994  -0.439116  -1.478865   0.341441   0.657099
    25  C   19.141100  -0.591997  -2.217020  -1.051691  -0.260802  -2.943597
    26  H   -0.591997  10.724869  -4.660719  -1.435561  -0.296172   1.415398
    27  H   -2.217020  -4.660719  11.373420   2.234547  -1.501791  -1.633787
    28  H   -1.051691  -1.435561   2.234547   7.053540  -2.792340  -1.989825
    29  H   -0.260802  -0.296172  -1.501791  -2.792340   6.989913  -1.770670
    30  H   -2.943597   1.415398  -1.633787  -1.989825  -1.770670   6.651653
 Mulliken charges:
               1
     1  C    0.788528
     2  C    3.255918
     3  C    3.665771
     4  H   -0.704689
     5  H   -0.835101
     6  C   -0.120989
     7  H   -0.632869
     8  H   -0.693857
     9  N   -1.318589
    10  H   -1.481459
    11  H   -0.637160
    12  H   -0.874171
    13  H   -0.556668
    14  C    3.452591
    15  H   -0.833223
    16  H   -0.874467
    17  H   -0.680797
    18  C    0.709922
    19  C    2.678773
    20  H   -1.081038
    21  H   -1.216903
    22  C    0.032334
    23  H   -1.105904
    24  H   -0.893091
    25  C    4.866374
    26  H   -0.933690
    27  H   -0.870631
    28  H   -0.711583
    29  H   -0.593576
    30  H   -0.799756
 Sum of Mulliken charges =   1.00000
 Mulliken charges with hydrogens summed into heavy atoms:
               1
     1  C   -0.642311
     2  C    1.716129
     3  C    2.339045
     6  C   -2.239609
     9  N   -1.318589
    14  C    1.064103
    18  C   -1.588018
    19  C    0.679778
    22  C   -1.771987
    25  C    2.761459
 Electronic spatial extent (au):  <R**2>=           1932.5927
 Charge=              1.0000 electrons
 Dipole moment (field-independent basis, Debye):
    X=              2.7877    Y=             -1.1625    Z=              0.2013  Tot=              3.0271
 Quadrupole moment (field-independent basis, Debye-Ang):
   XX=            -44.5062   YY=            -55.0527   ZZ=            -56.5868
   XY=              0.0580   XZ=              0.5919   YZ=             -0.4945
 Traceless Quadrupole moment (field-independent basis, Debye-Ang):
   XX=              7.5424   YY=             -3.0041   ZZ=             -4.5382
   XY=              0.0580   XZ=              0.5919   YZ=             -0.4945
 Octapole moment (field-independent basis, Debye-Ang**2):
  XXX=             16.2897  YYY=             -3.0656  ZZZ=              2.9023  XYY=              8.1972
  XXY=              4.0920  XXZ=             -4.4832  XZZ=              4.8891  YZZ=             -5.0710
  YYZ=              1.1091  XYZ=             -1.3073
 Hexadecapole moment (field-independent basis, Debye-Ang**3):
 XXXX=          -1673.0981 YYYY=           -413.3312 ZZZZ=           -284.5194 XXXY=             -8.2652
 XXXZ=             -1.8909 YYYX=              3.9520 YYYZ=             -2.1746 ZZZX=              4.7688
 ZZZY=             -4.0332 XXYY=           -358.9342 XXZZ=           -343.5476 YYZZ=           -114.8377
 XXYZ=              1.2437 YYXZ=              0.2846 ZZXY=              1.2210
 N-N= 6.048043466459D+02 E-N=-2.142991748239D+03  KE= 4.068482967538D+02
  Exact polarizability: 124.530   0.808 100.874  -1.485   0.685  94.782
 Approx polarizability: 128.376   0.651 124.986  -0.456   0.399 123.299
 No NMR shielding tensors so no spin-rotation constants.
 Leave Link  601 at Mon Oct 31 15:36:47 2022, MaxMem=  8589934592 cpu:              20.8 elap:               1.8
 (Enter /usr/local/gaussian/g16a03/g16/l9999.exe)

 ----------------------------------------------------------------------

 Electric dipole moment (input orientation):
 (Debye = 10**-18 statcoulomb cm , SI units = C m)
                  (au)            (Debye)         (10**-30 SI)
   Tot        0.119096D+01      0.302712D+01      0.100974D+02
   x         -0.637216D+00     -0.161964D+01     -0.540255D+01
   y          0.863195D+00      0.219402D+01      0.731847D+01
   z          0.516950D+00      0.131395D+01      0.438288D+01

 Dipole polarizability, Alpha (input orientation).
 (esu units = cm**3 , SI units = C**2 m**2 J**-1)
 Alpha(0;0):
               (au)            (10**-24 esu)      (10**-40 SI)
   iso        0.106729D+03      0.158156D+02      0.175972D+02
   aniso      0.274006D+02      0.406035D+01      0.451775D+01
   xx         0.101941D+03      0.151061D+02      0.168078D+02
   yx        -0.689231D+01     -0.102133D+01     -0.113639D+01
   yy         0.103649D+03      0.153592D+02      0.170895D+02
   zx        -0.521742D+01     -0.773142D+00     -0.860236D+00
   zy         0.113311D+02      0.167909D+01      0.186824D+01
   zz         0.114596D+03      0.169813D+02      0.188943D+02

 First dipole hyperpolarizability, Beta (input orientation).
 ||, _|_  parallel and perpendicular components, (z) with respect to z axis,
 vector components x,y,z.  Values do not include the 1/n! factor of 1/2.
 (esu units = statvolt**-1 cm**4 , SI units = C**3 m**3 J**-2)
 Beta(0;0,0):
               (au)            (10**-30 esu)      (10**-50 SI)
   || (z)     0.464235D+01      0.401063D-01      0.148850D-01
   _|_(z)     0.154745D+01      0.133688D-01      0.496168D-02
   x         -0.706444D+02     -0.610312D+00     -0.226511D+00
   y          0.903173D+02      0.780271D+00      0.289590D+00
   z          0.232117D+02      0.200531D+00      0.744252D-01
   ||         0.233980D+02      0.202140D+00      0.750224D-01
   xxx       -0.308791D+01     -0.266771D-01     -0.990096D-02
   xxy        0.204578D+01      0.176739D-01      0.655950D-02
   yxy       -0.808939D+01     -0.698860D-01     -0.259375D-01
   yyy        0.152732D+02      0.131949D+00      0.489715D-01
   xxz       -0.239566D+01     -0.206966D-01     -0.768134D-02
   yxz       -0.918162D+01     -0.793221D-01     -0.294396D-01
   yyz        0.106054D+02      0.916220D-01      0.340046D-01
   zxz       -0.123708D+02     -0.106874D+00     -0.396654D-01
   zyz        0.127868D+02      0.110468D+00      0.409990D-01
   zzz       -0.472456D+00     -0.408165D-02     -0.151487D-02

 ----------------------------------------------------------------------

 Dipole orientation:
     6         -7.51738699         -2.89724444         -5.56421208
     6         -5.49273643         -4.91694629         -5.34372688
     6         -3.29951960         -3.77199222         -6.81434825
     1         -6.11180432         -6.67683173         -6.21775855
     1         -5.04761241         -5.30879441         -3.37798914
     6         -4.61979825         -2.68929460         -9.11298417
     1         -1.87149632         -5.14408219         -7.35708693
     1         -2.37003927         -2.29134736         -5.72245599
     7         -7.11302283         -1.62913470         -8.13869282
     1         -5.06927721         -4.16958981        -10.46217475
     1         -3.59452591         -1.20096422        -10.07944645
     1         -7.28202869         -1.44555787         -4.13090112
     1         -9.43892455         -3.60567749         -5.47144869
     6         -6.90341477          1.15646920         -7.79746511
     1         -6.55715120          2.04542568         -9.61224735
     1         -5.33805435          1.54904924         -6.52802010
     1         -8.65312629          1.86609497         -6.98738114
     6         -9.32669856         -2.26770010         -9.84139069
     6         -9.47183269         -0.96926721        -12.39953950
     1        -11.00288143         -1.77282810         -8.75553010
     1         -9.28506131         -4.31637619        -10.05089297
     6         -7.40938926         -1.52165544        -14.33854387
     1         -9.69267163          1.06737966        -12.15719272
     1        -11.27674910         -1.60826204        -13.17456459
     6         -8.10318961         -0.48563270        -16.93343554
     1         -7.10551570         -3.56108683        -14.46733944
     1         -5.61528650         -0.69093004        -13.74938083
     1         -9.83596016         -1.35102025        -17.63513712
     1         -6.61169473         -0.85943568        -18.29876949
     1         -8.39833171          1.55282340        -16.86331001

 Electric dipole moment (dipole orientation):
 (Debye = 10**-18 statcoulomb cm , SI units = C m)
                  (au)            (Debye)         (10**-30 SI)
   Tot        0.119096D+01      0.302712D+01      0.100974D+02
   x          0.000000D+00      0.000000D+00      0.000000D+00
   y          0.000000D+00      0.000000D+00      0.000000D+00
   z          0.119096D+01      0.302712D+01      0.100974D+02

 Dipole polarizability, Alpha (dipole orientation).
 (esu units = cm**3 , SI units = C**2 m**2 J**-1)
 Alpha(0;0):
               (au)            (10**-24 esu)      (10**-40 SI)
   iso        0.106729D+03      0.158156D+02      0.175972D+02
   aniso      0.274006D+02      0.406035D+01      0.451775D+01
   xx         0.101515D+03      0.150430D+02      0.167376D+02
   yx        -0.472157D+01     -0.699665D+00     -0.778482D+00
   yy         0.985493D+02      0.146035D+02      0.162486D+02
   zx         0.567777D+01      0.841359D+00      0.936138D+00
   zy        -0.768203D+01     -0.113836D+01     -0.126660D+01
   zz         0.120121D+03      0.178001D+02      0.198053D+02

 First dipole hyperpolarizability, Beta (dipole orientation).
 ||, _|_  parallel and perpendicular components, (z) with respect to z axis,
 vector components x,y,z.  Values do not include the 1/n! factor of 1/2.
 (esu units = statvolt**-1 cm**4 , SI units = C**3 m**3 J**-2)
 Beta(0;0,0):
               (au)            (10**-30 esu)      (10**-50 SI)
   || (z)     0.226668D+02      0.195824D+00      0.726781D-01
   _|_(z)     0.755561D+01      0.652746D-01      0.242260D-01
   x         -0.196995D+02     -0.170188D+00     -0.631637D-01
   y          0.213057D+02      0.184064D+00      0.683136D-01
   z          0.113334D+03      0.979119D+00      0.363390D+00
   ||         0.233980D+02      0.202140D+00      0.750224D-01
   xxx       -0.148427D+02     -0.128229D+00     -0.475910D-01
   xxy        0.444043D+01      0.383618D-01      0.142376D-01
   yxy       -0.213570D+01     -0.184507D-01     -0.684781D-02
   yyy        0.711518D+01      0.614697D-01      0.228139D-01
   xxz       -0.139191D+01     -0.120250D-01     -0.446298D-02
   yxz       -0.127683D+01     -0.110308D-01     -0.409397D-02
   yyz        0.211710D+00      0.182901D-02      0.678820D-03
   zxz        0.104119D+02      0.899504D-01      0.333842D-01
   zyz       -0.445373D+01     -0.384767D-01     -0.142803D-01
   zzz        0.389583D+02      0.336569D+00      0.124914D+00

 ----------------------------------------------------------------------
 1\1\GINC-MI05\SP\RM062X\Gen\C9H20N1(1+)\SOPHIEC\31-Oct-2022\0\\#P M062
 X/Gen field=Z+8 int=(grid=ultrafine) polar=Dipole\\c4mpyr_eGeom\\1,1\C
 ,0,-2.0231,-4.18137,-2.29528\C,0,-1.51702,-4.48435,-0.89675\C,0,-0.007
 88,-4.35061,-1.05271\H,0,-1.78359,-5.49831,-0.5978\H,0,-1.94113,-3.798
 11,-0.16891\C,0,0.23868,-5.0581,-2.36977\H,0,0.55427,-4.81453,-0.2468\
 H,0,0.28852,-3.30231,-1.10663\N,0,-0.94145,-4.68569,-3.25851\H,0,0.218
 48,-6.13628,-2.23918\H,0,1.15954,-4.78298,-2.87231\H,0,-2.1215,-3.1111
 6,-2.4562\H,0,-2.96459,-4.65832,-2.54631\C,0,-0.55067,-3.59072,-4.1891
 8\H,0,0.23702,-3.93912,-4.84894\H,0,-0.19092,-2.74819,-3.60496\H,0,-1.
 41956,-3.29244,-4.77068\C,0,-1.48832,-5.86965,-4.03146\C,0,-0.63969,-6
 .43617,-5.15815\H,0,-2.43488,-5.52709,-4.44643\H,0,-1.70453,-6.63103,-
 3.28204\C,0,0.70379,-7.06996,-4.80772\H,0,-0.5104,-5.69187,-5.94615\H,
 0,-1.27615,-7.20598,-5.60212\C,0,1.29289,-7.81708,-5.99755\H,0,0.57712
 ,-7.75976,-3.96906\H,0,1.41573,-6.30869,-4.48304\H,0,0.63383,-8.62436,
 -6.31742\H,0,2.25768,-8.25266,-5.7455\H,0,1.43973,-7.14886,-6.84684\\V
 ersion=ES64L-G16RevA.03\State=1-A\HF=-409.4032281\RMSD=5.038e-09\Dipol
 e=-0.6372164,0.8631949,0.5169496\Polar=101.9411037,-6.8923088,103.6492
 643,-5.21742,11.3310682,114.5955427\HyperPolar=-3.0879107,2.045777,-8.
 0893874,15.2732207,-2.3956552,-9.181624,10.6053571,-12.3708298,12.7867
 755,-0.4724563\Quadrupole=-2.3434494,0.3497011,1.9937483,-2.0551796,-1
 .5418278,3.5838582\PG=C01 [X(C9H20N1)]\\@


 THE ENLIGHTENED ONE, BECAUSE HE SAW MANKIND DROWNING  
 IN THE GREAT SEA OF BIRTH, DEATH, AND SORROW, LONGED TO SAVE 
 THEM, FOR THIS HE WAS MOVED TO PITY.                         
 BECAUSE HE SAW MEN OF THE WORLD STRAYING IN FALSE PATHS, AND 
 NONE TO GUIDE THEM, FOR THIS HE WAS MOVED TO PITY.           
                     ..................                       
 BECAUSE HE SAW THE MEN OF THE WORLD PLOUGHING THEIR FIELDS,  
 SOWING THE SEED, TRAFFICKING, HUCKSTERING, BUYING, SELLING,  
 AND AT THE END WINNOWING NOTHING BUT BITTERNESS,             
 FOR THIS HE WAS MOVED TO PITY......                   
                   BUDAH'S PITY - UPSAKA SILA SUTRA           
 Job cpu time:       0 days  1 hours 54 minutes 16.1 seconds.
 Elapsed time:       0 days  0 hours  7 minutes 31.1 seconds.
 File lengths (MBytes):  RWF=     94 Int=      0 D2E=      0 Chk=     13 Scr=      1
 Normal termination of Gaussian 16 at Mon Oct 31 15:36:47 2022.
Done.
Output directory in: /monfs01/projects/sn29/sophiec/md/polarisabilities/c4mpyr/plusZ/g16.10108899
